formula,element_1,element_2,composition_1,composition_2,melting_point,boiling_point,density,electronegativity,atomic_radius,electronegativity_difference,element_3,composition_3,alloy_type
Nd0.670Ce0.330,Nd,Ce,0.6697222371410455,0.3302777628589545,1314.087052239179,3259.464637477365,5010.929386198239,1.1333944447428208,1.85,0.019999999999999796,,,binary
Ir0.524Sm0.476,Ir,Sm,0.5244454699450597,0.4755545300549403,1962.672432377664,3587.946327009021,13101.550396551582,1.7101788340434116,1.5877772650274702,1.0300000000000002,,,binary
Ca0.584Sc0.416,Ca,Sc,0.5843414332282503,0.4156585667717497,1431.3174062187982,2312.929940397826,2270.8132283416794,1.1496370840378298,1.7168682866456502,0.3600000000000001,,,binary
Co0.192Er0.808,Co,Er,0.1915312579440637,0.8084687420559363,1816.9584481316137,2845.5597884897547,10115.213132564413,1.362580005084201,1.6733874968223745,0.6399999999999999,,,binary
Tb0.677Ce0.323,Tb,Ce,0.6766719333260793,0.32332806667392067,1424.6640082358904,3535.3531002656555,7003.423136335707,1.1064665613334785,1.7823328066673922,0.020000000000000018,,,binary
Tc0.461Hg0.539,Tc,Hg,0.4612439327722252,0.5387560672277748,1191.7839411080172,2217.250445386554,5212.569357918568,1.9538756067227774,1.4308134100841663,0.10000000000000009,,,binary
Ru0.371Au0.629,Ru,Au,0.3711452950681402,0.6288547049318598,2118.1351460244264,3114.106943902965,14028.803552015666,2.4138105996768324,1.331442735246593,0.33999999999999986,,,binary
Ca0.433Pt0.567,Ca,Pt,0.4327917202091962,0.5672082797908038,1881.801615455607,3020.2616911585947,11787.993483788503,1.7260265981322287,1.5447562740941383,1.2799999999999998,,,binary
Co0.441Ta0.559,Co,Ta,0.4414112050087664,0.5585887949912336,2890.437094677755,4334.370054595455,15644.7029445265,1.6677362579033312,1.4058588794991234,0.3799999999999999,,,binary
Dy0.399Pd0.601,Dy,Pd,0.3994408187484295,0.6005591812515705,1888.8319610146866,2927.651016700591,12930.685013949946,1.808547997626539,1.5398042865619503,0.9800000000000002,,,binary
Zn0.838Ho0.162,Zn,Ho,0.8383880285875075,0.1616119714124925,808.8195537879934,1582.3133383011793,7629.167828281407,1.582122972006753,1.414644788564997,0.41999999999999993,,,binary
Mn0.765Fe0.235,Mn,Fe,0.7654175107798836,0.23458248922011637,1794.1492675019945,2915.426959370002,7588.981732560365,1.6156830969816327,1.4,0.28,,,binary
Fe0.177Hg0.823,Fe,Hg,0.1772515460526285,0.8227484539473715,475.079188650323,1123.1281508887043,1301.0913847837546,1.9698672371710533,1.4822748453947372,0.16999999999999993,,,binary
Lu0.749Os0.251,Lu,Os,0.7494154282219139,0.25058457177808613,2728.309072964335,4134.126291978608,12564.308995660107,1.5030436517536203,1.6372369426998612,0.9300000000000002,,,binary
Ce0.569Cr0.431,Ce,Cr,0.5691720661915816,0.43082793380841844,1575.65219538784,2886.7367295331696,6214.511976850768,1.352647084256546,1.6561274297862116,0.5399999999999998,,,binary
Ce0.636W0.364,Ce,W,0.6360106117858366,0.3639893882141634,2267.1879208304354,4140.824006573822,10082.13684553838,1.5713468413855627,1.6680053058929185,1.2399999999999998,,,binary
Au0.799Re0.201,Au,Re,0.7988858977874548,0.20111410221254522,1858.694792387098,4116.398010532423,21058.365909121585,2.411286974583971,1.35,0.6400000000000001,,,binary
Hg0.141Yb0.859,Hg,Yb,0.14115686397790084,0.8588431360220992,1072.3640359708304,1248.343306023342,4840.328601636958,1.2270411775801109,1.714710784005525,0.8999999999999999,,,binary
Cd0.350Sm0.650,Cd,Sm,0.34995911927012313,0.6500408807298769,1244.7406818083193,1658.1530222212134,7611.074225886488,1.351978742020464,1.7450122642189632,0.52,,,binary
Co0.506Pr0.494,Co,Pr,0.5059300375744032,0.49406996242559675,1689.3971788541726,3567.3168397650606,8138.237659371262,1.5094475281808024,1.5970349812127984,0.75,,,binary
Zn0.486Dy0.514,Zn,Dy,0.48575151696351093,0.5142484830364891,1460.2963851121428,1902.7832372083487,8595.406968401954,1.4288731522943097,1.5556993932145957,0.42999999999999994,,,binary
Co0.776Re0.224,Co,Re,0.776298734881076,0.22370126511892396,2158.5154456690902,3899.0447408950226,13386.003661416084,1.8844740253023784,1.35,0.020000000000000018,,,binary
Os0.710Ni0.290,Os,Ni,0.7100845055494798,0.28991549445052023,2993.1710428845763,4928.199782440606,20636.4717992502,2.1159245066093493,1.314495774722526,0.29000000000000026,,,binary
Pr0.746Ru0.254,Pr,Ru,0.7457770969218755,0.25422290307812445,1506.5917216770597,3464.2735088329937,7250.746863442244,1.4020185062935933,1.7101774033070316,1.0700000000000003,,,binary
Ce0.591Eu0.409,Ce,Eu,0.5908586244283719,0.4091413755716281,868.1824935938545,3475.857392370916,5425.077339676174,1.1527313100457304,1.85,0.07999999999999985,,,binary
Tb0.121Ce0.879,Tb,Ce,0.12100306516286673,0.8789969348371333,1110.7509027893375,3517.13876803012,7085.450194224728,1.1175799386967427,1.8378996934837133,0.020000000000000018,,,binary
Dy0.314Er0.686,Dy,Er,0.3139581801232885,0.6860418198767115,1907.5684378019064,3308.6417144941483,8385.121220901336,1.2337208363975343,1.75,0.020000000000000018,,,binary
Nb0.662Ag0.338,Nb,Ag,0.6621590182924837,0.3378409817075163,2200.742963200389,4261.815344299568,8989.394923330467,1.7114875239634804,1.5006761472561274,0.32999999999999985,,,binary
Hf0.381W0.619,Hf,W,0.3808187365895854,0.6191812634104146,3763.3411531943107,5733.800986315231,18236.342436165203,1.9563321392150395,1.4261637473179172,1.0599999999999998,,,binary
Nb0.553Zn0.447,Nb,Zn,0.553056875809101,0.446943124190899,1951.8350546551849,3689.569597945513,8074.4372014541,1.6223471562095448,1.4053056875809102,0.04999999999999982,,,binary
Pt0.213Mn0.787,Pt,Mn,0.21349972332101494,0.786500276678985,1419.0796233572194,2818.953468196234,9701.896760349915,1.7058547980243408,1.389325013833949,0.7299999999999998,,,binary
Gd0.173Ti0.827,Gd,Ti,0.17340614644355626,0.8265938535564438,1779.9262015279833,3761.953350496251,5726.512610299219,1.481041910209191,1.4693624585774225,0.3400000000000001,,,binary
Y0.401Tc0.599,Y,Tc,0.40095552456279093,0.5990444754372091,2181.6278800109862,4294.157089489923,10159.961984510914,1.6273502432973022,1.530429986053256,0.6799999999999999,,,binary
Ca0.226W0.774,Ca,W,0.22592742067607097,0.774072579323929,3187.0322263025173,6185.22044716738,16113.54820185346,2.0527387078805432,1.451667339304232,1.3599999999999999,,,binary
Hf0.360Yb0.640,Hf,Yb,0.3595063136627412,0.6404936863372588,1321.198270446484,2896.776040042489,9335.851055071815,1.1719012627325482,1.6780987372674518,0.19999999999999996,,,binary
Pr0.168Sm0.832,Pr,Sm,0.16796563198174344,0.8320343680182566,1492.4925661734067,2482.331050215718,7133.091961254259,1.1632813747207302,1.85,0.040000000000000036,,,binary
Cr0.226Zn0.774,Cr,Zn,0.2259279176857225,0.7740720823142775,902.7626804240226,1545.5417554512496,6532.728395694559,1.652259279176857,1.3612963958842863,0.010000000000000009,,,binary
Eu0.639Cr0.361,Eu,Cr,0.6391749684904904,0.3608250315095096,1402.6089068457118,2343.023514001698,6918.064400111836,1.3659795144943745,1.6876287358207207,0.45999999999999996,,,binary
Ag0.630Mg0.370,Ag,Mg,0.629550954246609,0.370449045753391,1163.554406252216,1794.172170185133,7570.070405093546,1.7003215916328975,1.562955095424661,0.6199999999999999,,,binary
Ba0.454Sm0.546,Ba,Sm,0.45363534935822336,0.5463646506417766,1330.7149546090877,1977.9492896287122,5534.500019140907,1.0429821021796974,1.9860906048074671,0.2799999999999999,,,binary
Ag0.704Tc0.296,Ag,Tc,0.7039545149346965,0.2960454850653035,1591.0586281684352,2817.594429793353,11488.436085063226,1.9211186354480407,1.5259886287336741,0.030000000000000027,,,binary
Ni0.444Re0.556,Ni,Re,0.44393090671831226,0.5560690932816877,2658.0138286102797,4874.187859495001,14254.795183044911,1.904439309067183,1.35,0.010000000000000009,,,binary
Cd0.643Ho0.357,Cd,Ho,0.6427890038081064,0.35721099619189356,957.5565396073074,1863.156449615916,8377.363806414201,1.5256829417517288,1.6214421992383787,0.45999999999999996,,,binary
Ba0.634Y0.366,Ba,Y,0.6337060469890796,0.3662939530109204,1515.908109199508,2572.8849594894164,3949.156444678869,1.0108770044936037,2.021797116446178,0.32999999999999996,,,binary
V0.416Ru0.584,V,Ru,0.41621071687010314,0.5837892831298969,2657.1953436523427,3530.274462762895,8045.1754656619105,1.9627598913840414,1.3208105358435054,0.5700000000000003,,,binary
Sm0.106Cr0.894,Sm,Cr,0.1061496687199063,0.8938503312800937,1772.2946007256637,3211.933661241992,6767.335418655619,1.6079866623272459,1.4477673509239577,0.49,,,binary
Hf0.714Tc0.286,Hf,Tc,0.7138796218468832,0.28612037815311675,3119.776749851578,4509.620947565839,13028.202396250768,1.47167222689187,1.4927759243693768,0.5999999999999999,,,binary
Pd0.362Cd0.638,Pd,Cd,0.3624978847502729,0.6375021152497271,1202.0885504746896,2204.3731077941743,11907.967107419307,1.874873921222639,1.495625317287459,0.5100000000000002,,,binary
Al0.698Ba0.302,Al,Ba,0.6976112987438142,0.3023887012561858,1068.816264373125,2861.5707356679723,3119.430174126717,1.3922801350955463,1.5221498311305672,0.7200000000000001,,,binary
Nb0.404Cu0.596,Nb,Cu,0.404165956572189,0.595834043427811,2069.9432542672175,3717.512713600653,8060.2825958905,1.7787502130283432,1.3904165956572188,0.2999999999999998,,,binary
Tm0.500Ru0.500,Tm,Ru,0.5002098772449706,0.49979012275502943,2211.587864030247,3265.993777929568,10353.340606157535,1.724800616617278,1.5250944447602368,0.9500000000000002,,,binary
Dy0.158Re0.842,Dy,Re,0.15766039727372627,0.8423396027262737,3399.8704461486823,5906.494363941418,19222.584158982165,1.792790929853866,1.4130641589094908,0.6799999999999999,,,binary
Lu0.449V0.551,Lu,V,0.4489756764098497,0.5510243235901503,2372.5940154376344,3257.8698229379547,7634.361875978786,1.468368756492454,1.52959027056394,0.3599999999999999,,,binary
Ca0.790Mn0.210,Ca,Mn,0.7896880108896531,0.21031198911034688,1113.9497991987469,1527.7491089418706,2771.9373354432882,1.1156715940106907,1.7158752043558612,0.55,,,binary
Pr0.559Hg0.441,Pr,Hg,0.5587197447086745,0.44128025529132553,768.8582155744875,2612.0241719074256,3943.923875252451,1.5139138221034532,1.6955519106480361,0.8700000000000001,,,binary
Tm0.434Gd0.566,Tm,Gd,0.4341551678747845,0.5658448321252155,1513.4640575968592,3507.1497898613275,9557.515829863518,1.2217077583937392,1.7782922416062608,0.050000000000000044,,,binary
Ni0.117Pt0.883,Ni,Pt,0.11668524721979906,0.883314752780201,2121.5315865069956,3901.18004542647,17781.463387316373,2.2368264585286743,1.3500000000000003,0.3699999999999999,,,binary
Ta0.741Zr0.259,Ta,Zr,0.7410577234483617,0.25894227655163826,2877.8524094470877,6053.757658305658,16667.63820195632,1.4559798129862216,1.4758942276551636,0.16999999999999993,,,binary
Eu0.766Ca0.234,Eu,Ca,0.7656207304573658,0.23437926954263422,1272.9312589352082,1702.4214730208341,3888.01174021019,1.1531241460914732,1.8382810365228683,0.19999999999999996,,,binary
Os0.449Fe0.551,Os,Fe,0.4493694236545823,0.5506305763454177,2517.786628429734,3375.4285104844853,14964.36876672157,1.9962666867521954,1.3550630576345417,0.3700000000000001,,,binary
Co0.449Rh0.551,Co,Rh,0.44854122155232,0.55145877844768,1996.7205226375597,3454.6510673915004,9126.201316682906,2.100583511379072,1.35,0.3999999999999999,,,binary
Pt0.163Y0.837,Pt,Y,0.1629176699862879,0.8370823300137121,1932.9161730484175,3492.1711536269954,6339.439743257838,1.3926927301854652,1.7266870485061705,1.0599999999999998,,,binary
Hf0.372Lu0.628,Hf,Lu,0.37161062491877117,0.6283893750812288,1525.981497657014,4109.964630710976,13102.654065976629,1.2811483187475632,1.675677875016246,0.030000000000000027,,,binary
W0.161Zr0.839,W,Zr,0.16110350197841694,0.8388964980215831,2775.9035023665583,4644.173023973758,8047.605407901692,1.4959366070377695,1.5177792996043167,1.0299999999999998,,,binary
Gd0.524Ni0.476,Gd,Ni,0.5244838566181186,0.4755161433818814,1730.487137178527,3027.0188903203243,8632.741683307733,1.5376164618011359,1.5860177354781535,0.71,,,binary
Mo0.381Re0.619,Mo,Re,0.3808797879658884,0.6191202120341116,3493.124380656494,6179.863195882703,16759.79672499171,1.999028744871131,1.3880879787965887,0.26000000000000023,,,binary
Tb0.289Zn0.711,Tb,Zn,0.28901507915737945,0.7109849208426205,943.6708980374808,1688.8339106032977,6835.668659489987,1.4910417064634411,1.465606031662952,0.5499999999999998,,,binary
Zn0.258Pd0.742,Zn,Pd,0.2578174422591866,0.7421825577408134,1500.5597858660055,2805.333775534595,11747.46699496123,2.0582004067574475,1.3871091278870407,0.5500000000000003,,,binary
Sm0.708Zn0.292,Sm,Zn,0.7081722364375137,0.2918277635624863,1061.8970674667755,2085.3739969409917,7093.168788209799,1.3100773265099934,1.704086118218757,0.48,,,binary
Tb0.242Mn0.758,Tb,Mn,0.24171690315778332,0.7582830968422167,1542.2863541374224,2421.0541131564833,5796.2485954093445,1.4412273935789977,1.4846009161052243,0.44999999999999996,,,binary
Gd0.471Ba0.529,Gd,Ba,0.47116245481041563,0.5288375451895844,1388.4015221483273,2999.01973353781,5421.9252301444585,1.036060360991229,1.9850931408163546,0.30999999999999994,,,binary
Pr0.459Nd0.541,Pr,Nd,0.4591242055960504,0.5408757944039496,1264.5529038935467,3638.760620680663,5675.48738642579,1.1354087579440395,1.85,0.010000000000000009,,,binary
Pr0.608Tb0.392,Pr,Tb,0.6082386552484748,0.39176134475152524,1300.2962161686214,3820.623851470302,6348.153751031103,1.1182471596574541,1.8108238655248474,0.029999999999999805,,,binary
Eu0.791Ta0.209,Eu,Ta,0.791397499865133,0.20860250013486703,1601.7271034024436,2264.58976662215,7978.894623342503,1.2625807500404602,1.7665589999460534,0.30000000000000004,,,binary
Gd0.221Ta0.779,Gd,Ta,0.22076592111446153,0.7792340788855385,2903.209623230085,4396.646589207393,16432.842782927037,1.4337702236656615,1.5272680723900616,0.30000000000000004,,,binary
Mn0.454Sr0.546,Mn,Sr,0.4537664510690279,0.5462335489309721,1170.051031687782,1804.0461631359162,4923.0289232913165,1.2222598706414167,1.7277401293585832,0.6000000000000001,,,binary
Hf0.573Ag0.427,Hf,Ag,0.5731358054648168,0.4268641945351832,2188.9521406821364,3444.5559268640786,12180.91409628075,1.5689244425571656,1.5713432097267592,0.6299999999999999,,,binary
Re0.159Sc0.841,Re,Sc,0.15935252493863017,0.8406474750613698,2165.1629938783803,3789.3897062755,5962.298532151673,1.4460503634668604,1.5601618687653427,0.5399999999999998,,,binary
Ca0.130Mg0.870,Ca,Mg,0.13008579645687368,0.8699142035431263,913.1830972839643,1297.2115420496634,1728.3050025416112,1.2696734030983694,1.539025738937062,0.31000000000000005,,,binary
Os0.161Cd0.839,Os,Cd,0.161384800938764,0.838615199061236,921.2303313054272,1221.1225948280055,11378.909999161751,1.77230624847877,1.5096537997653092,0.5100000000000002,,,binary
Fe0.575Eu0.425,Fe,Eu,0.5752638549033869,0.42473614509661306,1644.954377864633,1960.7422405026646,6074.674561935703,1.5624162285891339,1.591131265293476,0.6300000000000001,,,binary
Ir0.564Ca0.436,Ir,Ca,0.5642635259289525,0.43573647407104754,2157.1367316354754,4121.483238829287,13483.940327799815,1.6771162311147432,1.5460814133319714,1.2000000000000002,,,binary
Lu0.460V0.540,Lu,V,0.4597869629207251,0.5402130370792749,1914.0878590388365,3610.437221558407,8901.369910207579,1.464476693348539,1.5339147851682902,0.3599999999999999,,,binary
Pr0.251Tb0.749,Pr,Tb,0.2505915720553801,0.7494084279446199,1425.08824422702,3236.8769097058153,7445.650400080787,1.1075177471616615,1.775059157205538,0.029999999999999805,,,binary
Sm0.501Sr0.499,Sm,Sr,0.5010938414982621,0.4989061585017379,1083.6308200864073,1888.8503037768398,5808.463809503054,1.0602406451296176,1.9248359237752606,0.21999999999999997,,,binary
Cr0.183Mg0.817,Cr,Mg,0.1828015018163133,0.8171984981836867,1190.025468296564,1610.3201443018488,2645.9607349360317,1.3739805256357098,1.4817198498183688,0.34999999999999987,,,binary
W0.167Tm0.833,W,Tm,0.16746330561965106,0.8325366943803489,1799.0049739310177,3076.334318162103,10898.248783457566,1.4358842692378126,1.6830146777521395,1.1099999999999999,,,binary
Tb0.131Nb0.869,Tb,Nb,0.13131370096053907,0.8686862990394609,2555.8220772994473,6356.69128940747,8778.56314814478,1.5343431495197306,1.4893941102881618,0.5,,,binary
Tm0.893Mg0.107,Tm,Mg,0.89278881811751,0.10721118188249001,1592.5841157352068,2039.950175898831,9485.117239328198,1.2564326709129494,1.7231972045293775,0.06000000000000005,,,binary
Y0.227Eu0.773,Y,Eu,0.22699696638523312,0.7730030336147669,1272.1461373578932,1892.6863870082425,5534.693274979642,1.2045399393277045,1.8386501516807383,0.020000000000000018,,,binary
Os0.410Cd0.590,Os,Cd,0.4099332476184928,0.5900667523815072,1591.892168471827,3300.9746338401237,15924.985378780151,1.8990659562854315,1.447516688095377,0.5100000000000002,,,binary
W0.578Ho0.422,W,Ho,0.5783086899063916,0.4216913100936084,2739.76858785407,5225.936623373635,14941.923191004727,1.8834888195942225,1.5186765240374434,1.13,,,binary
Gd0.368Tb0.632,Gd,Tb,0.3677194778079501,0.6322805221920499,1750.357416095641,3680.5127868513173,7416.3415254254305,1.1367719477807952,1.7683859738903975,0.09999999999999987,,,binary
W0.546Co0.454,W,Co,0.5463705699347219,0.4536294300652781,2639.3199420047968,5113.33746471256,14067.672065631305,2.1422578735686666,1.35,0.48,,,binary
Ir0.302Cd0.698,Ir,Cd,0.30159662797292264,0.6984033720270774,1190.982476215987,1939.3531003624948,13417.624453072916,1.8438142802661903,1.4896806744054156,0.5100000000000002,,,binary
Dy0.799Sm0.201,Dy,Sm,0.7986237296484311,0.2013762703515689,1945.1291260776368,2399.393332674893,8329.876994101904,1.2099311864824216,1.7701376270351568,0.050000000000000044,,,binary
W0.566Fe0.434,W,Fe,0.5661916116691357,0.4338083883308643,3284.100411216261,4622.212727523298,14962.565809523005,2.130081554184642,1.3716904194165431,0.5299999999999998,,,binary
Zn0.348Re0.652,Zn,Re,0.34818539004144966,0.6518146099585503,2230.654787267668,4417.804956109459,15884.252868864742,1.8129536524896372,1.35,0.25,,,binary
Tb0.630Er0.370,Tb,Er,0.6297081255433439,0.3702918744566561,1859.9505456523375,3768.979280785922,10742.217928604749,1.1518408624239318,1.75,0.1399999999999999,,,binary
Cu0.667Sm0.333,Cu,Sm,0.6670672114968431,0.3329327885031569,1431.9728676094066,2917.8465327879385,8561.543978007041,1.6569590643926955,1.5164663942515784,0.73,,,binary
Fe0.547Hf0.453,Fe,Hf,0.5471376560728508,0.4528623439271492,2050.6653811978504,4055.669563070621,10030.43990251726,1.5899829577186109,1.4679293515890723,0.53,,,binary
Tb0.751W0.249,Tb,W,0.7505478270518408,0.24945217294815925,2180.4924251761786,4620.948253464325,9866.458571193376,1.4143097379146807,1.6502191308207363,1.2599999999999998,,,binary
Dy0.763Er0.237,Dy,Er,0.7631671783155717,0.23683282168442832,1903.6867225184992,3294.7366343957583,8570.56843686384,1.2247366564336886,1.75,0.020000000000000018,,,binary
Lu0.830Ho0.170,Lu,Ho,0.8299583883666596,0.17004161163334042,1490.9563333884564,3342.705853673389,10916.440005206932,1.2631983355346663,1.75,0.040000000000000036,,,binary
Fe0.636Tb0.364,Fe,Tb,0.6363648320639512,0.3636351679360488,1740.828337849786,2941.5912824134844,7595.661749955689,1.5645463274066844,1.5272723087776172,0.73,,,binary
Sc0.115Os0.885,Sc,Os,0.11458443023322618,0.8854155697667738,3398.577773410906,5310.2558549350715,19874.784206154043,2.10374907860409,1.334375329069968,0.8400000000000001,,,binary
Hf0.861Nb0.139,Hf,Nb,0.8609354508769075,0.13906454912309252,2446.7608529622266,4703.818664600482,11483.908221329191,1.3417193647369279,1.5360935450876907,0.30000000000000004,,,binary
W0.254Ba0.746,W,Ba,0.253604186931509,0.746395813068491,1955.405850053745,2978.336291426891,8414.809349453775,1.2627981547893183,1.9471166504547928,1.4699999999999998,,,binary
Cu0.162Zn0.838,Cu,Zn,0.16173206744070107,0.838267932559299,921.9891471845045,1657.1141570838984,7107.28055826026,1.690433016860175,1.3500000000000003,0.25,,,binary
Co0.717Sc0.283,Co,Sc,0.7166997762904809,0.28330022370951913,1852.9374236567392,3164.843774075906,6571.4197233111645,1.7326838836710499,1.4208250559273798,0.5199999999999998,,,binary
Lu0.130Y0.870,Lu,Y,0.13019799388604902,0.869802006113951,1874.2892917013671,3191.064450104469,5785.185963754614,1.2265098996943025,1.7934901003056976,0.050000000000000044,,,binary
W0.205Eu0.795,W,Eu,0.20483923314360641,0.7951607668563936,1554.9945957782593,2677.898700109943,8342.809134843323,1.4376135104465833,1.7475803834281969,1.16,,,binary