formula,element_1,element_2,composition_1,composition_2,melting_point,boiling_point,density,electronegativity,atomic_radius,electronegativity_difference,element_3,composition_3,alloy_type
Tb0.237Au0.140V0.623,Tb,Au,0.23701826284246366,0.14004727983175877,1730.2299363421807,3214.6578120439117,8076.311563681702,1.6318233453403947,1.4448073051369854,0.0,V,0.6229344573257776,ternary
Ba0.306Sr0.521Lu0.173,Ba,Sr,0.3064806592706487,0.5205817331847631,1096.3345710848553,2202.128060617684,3339.5795138582184,0.9869511948580294,2.0027376970044504,0.0,Lu,0.1729376075445882,ternary
Tm0.506Hg0.447Co0.050,Tm,Hg,0.5061050492841761,0.44672712836707446,988.7310530382877,1807.5644783725231,4683.220409066204,1.6200855683393691,1.62327452879792,0.0,Co,0.05,ternary
Sc0.310Mn0.465Re0.225,Sc,Mn,0.31043526605559857,0.4646157973014863,2301.5065402498335,3487.594244149303,7474.6623669368755,1.5697494272744568,1.450839606378974,0.0,Re,0.22494893664291515,ternary
Ce0.327Lu0.114Ta0.560,Ce,Lu,0.3266308765679974,0.11367544666668564,2562.1137723229863,4755.390059096937,12047.504360073193,1.3497349141708235,1.6147549846272047,0.0,Ta,0.559693676765317,ternary
Cr0.415Tb0.496Nb0.089,Cr,Tb,0.41507817075924935,0.49550965890697685,2005.90022245512,3568.017694205251,8354.61385829697,1.3771498607920667,1.5778989891341306,0.0,Nb,0.0894121703337738,ternary
Cu0.200Al0.253Pt0.547,Cu,Al,0.20003765906503898,0.25277376887843683,1816.0107006619105,3734.692749332787,12080.176998375036,2.0346272644067325,1.3247226231121565,0.0,Pt,0.5471885720565242,ternary
Pr0.179Fe0.358Ni0.463,Pr,Fe,0.1789112197220458,0.3581829455255119,1585.8478111225281,4186.848360382022,8721.01476863766,1.7417946129747632,1.4573647571372983,0.0,Ni,0.4629058347524423,ternary
Tb0.443Cu0.496Sm0.061,Tb,Cu,0.4428766891744591,0.4963211474545979,1827.085982096818,3721.577845650301,8720.143177446631,1.5013130693996444,1.5575517573552553,0.0,Sm,0.06080216337094302,ternary
Ta0.537Mg0.167Sr0.296,Ta,Mg,0.5367529218464051,0.16675490089014125,2298.397070886015,3780.2335998103667,8267.591087433553,1.3052458713359736,1.6214084425394066,0.0,Sr,0.29649217726345367,ternary
Nb0.481Ho0.484Nd0.050,Nb,Ho,0.48138552512054955,0.48389765627813747,2231.7591863972793,4520.218939502858,8198.38658026912,1.4224109574149884,1.6373299099115375,0.0,Nd,0.05,ternary
Mo0.284Fe0.297Au0.419,Mo,Fe,0.28379978158283703,0.2967470902070031,1999.3452789388941,3946.179723063905,12135.116386471636,2.2214656489515496,1.393217332668634,0.0,Au,0.4194531282101599,ternary
Ir0.110Pr0.111Ru0.778,Ir,Pr,0.11036731879453812,0.11148504735198747,2354.3276297673915,3914.218998282819,11807.987626132299,2.0807109993333737,1.3668351419833202,0.0,Ru,0.7781476338534744,ternary
Ce0.406Tb0.548Eu0.050,Ce,Tb,0.4061584204891779,0.547896815834526,1203.4004838532617,3171.0627572937074,8544.216715557779,1.117583928365858,1.8027125056153996,0.0,Eu,0.05,ternary
Ca0.451Mo0.184Pd0.365,Ca,Mo,0.4506305771016734,0.18437797818252058,1547.6705193992818,2914.936595043896,6631.063378480646,1.6518681883506914,1.5894711297497954,0.0,Pd,0.364991444715806,ternary
Pt0.400Eu0.175Hg0.425,Pt,Eu,0.40019636549114357,0.17462560046114498,1239.179650497769,2513.5007978976905,10164.291330404943,1.9723545019686042,1.5010895053377293,0.0,Hg,0.4251780340477115,ternary
Os0.159Zr0.459Pr0.382,Os,Zr,0.15867525940431246,0.459291711918405,2023.5570295289888,4249.671020960577,8028.425871201339,1.3916408699462952,1.6249410937521067,0.0,Pr,0.3820330286772825,ternary
Hg0.347Ca0.212Ho0.441,Hg,Ca,0.3470745150689496,0.21224197489605737,1292.4349493006273,1765.3554061019902,4483.8356540379455,1.448431722376998,1.6738434699775655,0.0,Ho,0.44068351003499306,ternary
Tc0.244Mo0.347Ag0.409,Tc,Mo,0.24398098642544083,0.3470840788709876,2325.8656894102864,3596.3784997449948,11770.421238175319,2.002509908547564,1.4869421415629915,0.0,Ag,0.40893493470357156,ternary
Cu0.381Hg0.580Tc0.050,Cu,Hg,0.3809363837297536,0.5801740099156746,833.8717000664301,2124.328818346231,3786.483419141725,1.979127148917881,1.452025132908679,0.0,Tc,0.05,ternary
Cd0.195Yb0.190Ho0.615,Cd,Yb,0.19468158490334073,0.1901849359591458,1212.099732341074,2205.522531159598,8517.868931759487,1.2948294873808477,1.7110636830193318,0.0,Ho,0.6151334791375135,ternary
Zn0.588Ti0.218Cd0.194,Zn,Ti,0.5880640814520398,0.21774281269937842,950.8757256172287,1605.2957793743788,5550.221580372134,1.6338160148370118,1.3997257618046852,0.0,Cd,0.19419310584858177,ternary
Mg0.391Rh0.424Os0.185,Mg,Rh,0.3914515386680777,0.4236177841505562,2010.6715308707821,3821.3597811054833,10606.216383965291,1.8854975533174554,1.3994711969411433,0.0,Os,0.18493067718136613,ternary
Fe0.167Al0.262Sr0.572,Fe,Al,0.16660246801169018,0.2616229898273914,1216.122606533404,2324.743692961348,3661.8158735424213,1.2692813451363656,1.7038212768224423,0.0,Sr,0.5717745421609184,ternary
Er0.206Pt0.292Ho0.502,Er,Pt,0.2061088320364652,0.29174772764911194,2008.9107812059804,3478.172846808642,12048.989261790432,1.5383962023519322,1.6333009089403552,0.0,Ho,0.5021434403144228,ternary
Hg0.228Lu0.148Sm0.624,Hg,Lu,0.22811279696619366,0.14763971104100335,1083.5612680604363,1932.845926291135,6232.843105902977,1.374097592586041,1.7553965499577318,0.0,Sm,0.6242474919928029,ternary
Cr0.335W0.277Rh0.387,Cr,W,0.3354662116923427,0.2771508417902121,2539.0885275898195,4270.118850582717,13104.578483577174,2.0941830160939645,1.3667733105846172,0.0,Rh,0.3873829465174452,ternary
Sm0.474Dy0.123Tm0.403,Sm,Dy,0.4741209201881772,0.1227559358081258,1708.1762587921353,2514.9853617082194,8358.10269302085,1.208387648310702,1.7974120920188177,0.0,Tm,0.403123144003697,ternary
Pd0.290Sc0.589Eu0.121,Pd,Sc,0.2904688377026742,0.5887619368534416,1505.2593571855691,2881.281672473238,5908.997374465195,1.584670747599225,1.5720985388204363,0.0,Eu,0.12076922544388424,ternary
Dy0.576Os0.378Cu0.050,Dy,Os,0.5756611555431798,0.377617301840324,1864.2222286946724,4316.970228899377,14104.40223757613,1.6280646738113922,1.5658095145929858,0.0,Cu,0.05,ternary
Nd0.185Nb0.346Pd0.469,Nd,Nb,0.1849332492938143,0.34641991380723913,2127.370738900778,4407.903177121713,9239.52777548246,1.7961188074642136,1.5005409578725786,0.0,Pd,0.4686468368989466,ternary
W0.145Ca0.455Cu0.400,W,Ca,0.14482399045421698,0.45512778733083525,1676.7951971051746,2891.7254495878806,6931.742669006201,1.557004027011188,1.5548075042988758,0.0,Cu,0.40004822221494774,ternary
Hg0.158Zn0.122Pd0.719,Hg,Zn,0.15842102808233202,0.12208108074410481,1326.0013110862415,3000.553068313039,9164.62408750039,2.101171199974276,1.4097380487710278,0.0,Pd,0.7194978911735631,ternary
Cu0.434Ba0.536Ag0.050,Cu,Ba,0.434139813338467,0.5364333158494528,1270.713130040712,2161.714408329058,7020.930023047396,1.3987912964491003,1.819420377083254,0.0,Ag,0.05,ternary
Cd0.454Pd0.526Eu0.050,Cd,Pd,0.45360430884174335,0.5262636402525009,1421.8968061436838,2286.8038905689145,10274.557112506467,1.9843712904980484,1.5323557750582035,0.0,Eu,0.05,ternary
Y0.546Ta0.258Hg0.196,Y,Ta,0.5463359049148254,0.25777145973171756,1951.9010771397193,4390.051716666956,5547.54984037902,1.4449722643005773,1.6510121984878616,0.0,Hg,0.19589263535345702,ternary
Ba0.524Zn0.428Ce0.050,Ba,Zn,0.5236359677250404,0.42765379114900676,941.5547693440351,1643.5734390074451,5215.451239841646,1.227664766671147,1.7956499486599962,0.0,Ce,0.05,ternary
Mg0.174Cr0.215Mo0.611,Mg,Cr,0.17431040352049157,0.21493027278461055,2338.748999965081,3704.6137479729623,8107.665810950785,1.904371020615277,1.447969006536794,0.0,Mo,0.6107593236948979,ternary
V0.182Sr0.334Pd0.485,V,Sr,0.18177747840420475,0.33356641991596614,1447.8258143880319,3076.4141773626557,6412.844340898245,1.6794288124146455,1.5910509780293693,0.0,Pd,0.4846561016798291,ternary
Ni0.321Ba0.594V0.085,Ni,Ba,0.320759843872935,0.5944092918523741,1405.865544148261,2522.7790442438377,4822.460144850785,1.2799498803136649,1.8255274334818994,0.0,V,0.08483086427469089,ternary
Ce0.346Ba0.523Ca0.131,Ce,Ba,0.34649427500550034,0.5229191754749565,1059.5981770535548,2202.681753888444,4372.853239293946,0.9840582036984149,2.00034642516651,0.0,Ca,0.13058654951954318,ternary
Zn0.147Ni0.534Re0.319,Zn,Ni,0.1467889391024921,0.5340865548108386,1825.5814642528424,3920.625795848866,11356.99891911166,1.8686436307724852,1.35,0.0,Re,0.3191245060866693,ternary
Nb0.354Zr0.236Lu0.409,Nb,Zr,0.35436888196532335,0.23639577687996396,2163.1770712441107,4517.616614694876,7938.750394230345,1.4011254776613546,1.5964101800344102,0.0,Lu,0.4092353411547127,ternary
Dy0.381Nd0.576Tc0.050,Dy,Nd,0.38071789904978304,0.5757939078892996,1499.1703150050132,2758.252615601177,8234.588355419342,1.2158808918345367,1.7989750529323247,0.0,Tc,0.05,ternary
Y0.308Pr0.138Nb0.553,Y,Pr,0.30820949569498446,0.13841773139744037,2639.402679265886,5605.266606258865,7103.991919636459,1.417824057879109,1.6132404160522207,0.0,Nb,0.5533727729075751,ternary
Ba0.544Ho0.113Co0.343,Ba,Ho,0.5436838490093416,0.11298108430311546,1452.7497613181708,2138.631133354949,6852.962220384788,1.2683152846837267,1.8301395129287195,0.0,Co,0.3433350666875429,ternary
Ho0.287Ni0.565Pt0.149,Ho,Ni,0.2867791548011396,0.5645742213398958,1914.1885027727565,3108.1541629546123,12008.508899561195,1.769989425563042,1.4647116619204559,0.0,Pt,0.14864662385896465,ternary
Co0.114Ta0.330Zn0.555,Co,Ta,0.11443725109496425,0.3301165902268113,1630.5772927600708,2780.0771199031956,10979.008235151987,1.62680307921782,1.383011659022681,0.0,Zn,0.5554461586782244,ternary
Tm0.327Dy0.578Sr0.095,Tm,Dy,0.3270277575714764,0.5776007654865027,1487.9924056784419,2783.1902450046177,7368.180111167625,1.2040605339527986,1.773842869235505,0.0,Sr,0.09537147694202086,ternary
Sm0.265Dy0.122Al0.613,Sm,Dy,0.2647134608394299,0.12192349976365549,1014.4110273050068,2371.041511467125,4997.880439433688,1.4459759123228253,1.4697898263854858,0.0,Al,0.6133630393969146,ternary
Eu0.464Mg0.535Ta0.050,Eu,Mg,0.4643955055158884,0.5354803926295266,1097.0106796874015,1602.6295028043144,3944.162933729982,1.333753920963746,1.7348522741486836,0.0,Ta,0.05,ternary
Pr0.489Cu0.481Tc0.050,Pr,Cu,0.4891984191357937,0.4805564572494893,1360.5632500853594,3093.4455465980645,7175.846022314176,1.5608514823974764,1.621268292688029,0.0,Tc,0.05,ternary
Cd0.472Ta0.374Cr0.155,Cd,Ta,0.4718999962163124,0.37357811090312965,2236.1596635470983,2821.0369253002914,11036.857418556248,1.6143845021419887,1.4894639049776033,0.0,Cr,0.15452189288055795,ternary
Sm0.299Ir0.189Fe0.512,Sm,Ir,0.2994292484788742,0.18900540038973138,1779.0393395392525,2982.191129001906,11163.822633000846,1.7023086941481438,1.525292891796007,0.0,Fe,0.5115653511313945,ternary
Pt0.526Fe0.181Ti0.292,Pt,Fe,0.5261729166217995,0.18147034193762726,2157.0432122349066,3650.5591188330786,12131.812935731006,1.9819943574620436,1.3736913541689102,0.0,Ti,0.2923567414405732,ternary
Pt0.476Cd0.427Tb0.097,Pt,Cd,0.47627928314519097,0.42703214941223955,1559.8562916840358,2708.533957566147,17047.9599922507,1.9139585222645465,1.4740818568594758,0.0,Tb,0.09668856744256948,ternary
Ni0.491Hf0.464Ba0.050,Ni,Hf,0.4909914582441062,0.463583975902467,1597.5447618881271,4008.7145373306566,12776.2151701111,1.58495285391945,1.4888936312783674,0.0,Ba,0.05,ternary
Hf0.166Ho0.433Sm0.402,Hf,Ho,0.16564333423616087,0.4327601481084209,1645.4009132674232,2870.423037075794,9228.667580103052,1.2174992423372062,1.75703098491831,0.0,Sm,0.40159651765541826,ternary
Os0.345Sc0.543Mo0.112,Os,Sc,0.34481151791454256,0.5427065193209407,2313.2501135611615,3932.1930181222447,10215.327558611094,1.7396272452598294,1.4796842502109597,0.0,Mo,0.11248196276451672,ternary
Sr0.400Ag0.145Pr0.455,Sr,Ag,0.4001703747476286,0.14511117471937326,1076.6103017838107,2959.6902415457444,5851.921632356647,1.1740582723209254,1.8737477625323011,0.0,Pr,0.4547184505329981,ternary
Hg0.193Os0.415Eu0.391,Hg,Os,0.19317791623661637,0.4153431282416623,1894.956970073294,3265.7334845321816,11141.299615463893,1.7698854612309554,1.55394900878427,0.0,Eu,0.3914789555217213,ternary
Fe0.271V0.332Sc0.397,Fe,V,0.27087242369827547,0.3317624378071726,1785.752233337517,3103.787771825409,5347.006120814668,1.5768858973461262,1.462884905808552,0.0,Sc,0.3973651384945519,ternary
Ru0.425Tb0.543Ho0.050,Ru,Tb,0.4245719290430549,0.5425436956504622,1857.3260098737082,3731.556568680972,9626.968031074508,1.5923563091102295,1.5888949751442802,0.0,Ho,0.05,ternary
Y0.362Gd0.245Tb0.392,Y,Gd,0.36233889193821733,0.24535151223919974,2036.6855563142885,2562.6328130141756,6661.453046142776,1.1680158182565061,1.7803845202088708,0.0,Tb,0.39230959582258296,ternary
Hg0.250Fe0.592Sr0.158,Hg,Fe,0.2501966273360198,0.592093116521052,1520.2391043258624,2301.9343150404598,5459.423134761889,1.7337484012413464,1.519645816419359,0.0,Sr,0.15771025614292822,ternary
Ho0.362Hf0.248Rh0.391,Ho,Hf,0.36154602850873696,0.24774081695279362,2142.965621499478,3584.1558172558025,8798.913564360088,1.6575906694520883,1.5441665747940536,0.0,Rh,0.39071315453846944,ternary
Cr0.559Ce0.357Mn0.085,Cr,Ce,0.5586510063897628,0.35670725892347155,1762.8836200240844,2894.7436443811102,6446.2572337732845,1.458067489365781,1.5605182665155621,0.0,Mn,0.08464173468676561,ternary
Sc0.147Hg0.430Au0.422,Sc,Hg,0.1472421812439579,0.43042762696858494,886.206919719252,2407.0875141480747,10656.364045645849,2.1338233075690938,1.4513746893562773,0.0,Au,0.4223301917874571,ternary
Pr0.227Pd0.141Re0.632,Pr,Pd,0.2274301021753545,0.14088478076698915,2776.300259343069,4742.440090176237,14541.70843954539,1.7671442555550736,1.4707592901260267,0.0,Re,0.6316851170576563,ternary
Sc0.470Ti0.331Ni0.198,Sc,Ti,0.47025808416894943,0.33143947191369605,1925.2051565294323,3854.102337651859,4548.636787780289,1.5287254490990103,1.484136494637922,0.0,Ni,0.19830244391735452,ternary
Nb0.142Pt0.538V0.320,Nb,Pt,0.14164528256748452,0.5383776735677516,1666.7734644166426,4368.768195972589,15954.474936986042,1.9756961293420137,1.3641645282567485,0.0,V,0.3199770438647639,ternary
Hf0.462Ta0.479Nd0.059,Hf,Ta,0.46204734241589207,0.47867713224239594,2364.0565951264734,5287.882153789557,15178.208890265407,1.3862513423938054,1.519914944378274,0.0,Nd,0.05927552534171199,ternary
Mg0.271Eu0.559Pd0.170,Mg,Eu,0.2706671899807439,0.5590559634243876,1166.9091249511214,1773.9148492945085,6002.967079551359,1.4000502374927504,1.6786419025390487,0.0,Pd,0.17027684659486853,ternary
Nb0.474Tc0.402Fe0.124,Nb,Tc,0.47351465963641626,0.40202643669887506,2403.4587923434997,3908.3618978269596,7681.252395647727,1.7492334788525454,1.4035744111468773,0.0,Fe,0.12445890366470869,ternary
Ho0.367Co0.103Hg0.530,Ho,Co,0.36718800149081354,0.10292353479167013,1061.7137346249776,1870.7784385731472,4181.906820692419,1.7049144146770732,1.576358470153953,0.0,Hg,0.5298884637175163,ternary
Ni0.428Al0.330Zr0.242,Ni,Al,0.42790048598170227,0.3300815086506539,1493.7525359577928,3237.194802784306,5603.310103451208,1.6706051042915704,1.3653954502084633,0.0,Zr,0.24201800536764384,ternary
Pt0.401Dy0.343Lu0.256,Pt,Dy,0.4009437200647272,0.34336124696880566,1806.1070910806795,2803.588301063668,12884.541966869108,1.657785094916934,1.5896225119741092,0.0,Lu,0.2556950329664671,ternary
Eu0.437Os0.445Er0.118,Eu,Os,0.43690157146432107,0.44514667717778045,2097.0607628298976,3723.5474485640725,13371.626599004687,1.6498647472320964,1.5933741524164309,0.0,Er,0.11795175135789848,ternary
Pt0.163Hf0.107Fe0.731,Pt,Hf,0.16254474496511348,0.10693795901090683,2075.617796467176,3946.070509532862,11725.537398545428,1.8464680169585204,1.4079134566033802,0.0,Fe,0.7305172960239796,ternary
Ni0.499Ti0.489Er0.050,Ni,Ti,0.49875675657692353,0.48920444094225307,1990.9648248611552,3491.794131622561,6404.605211569165,1.7680002441129938,1.445707838698001,0.0,Er,0.05,ternary
Tc0.173Sr0.221Tb0.607,Tc,Sr,0.17257709521703354,0.22089010862927314,1760.64078564514,3823.2629592174276,7808.983634949416,1.2049281598792358,1.7361916890705047,0.0,Tb,0.6065327961536933,ternary
Gd0.143La0.485Mo0.372,Gd,La,0.1430467736010174,0.48486057320023157,2243.7197300739017,3513.9267940422797,7019.417371041222,1.508722889750778,1.7424966573604719,0.0,Mo,0.37209265319875107,ternary
Zn0.111Sr0.183Hg0.706,Zn,Sr,0.11090841411225058,0.18305274658804885,471.62425195525213,901.763025356281,1440.600629266389,1.7689766711432608,1.574890111177187,0.0,Hg,0.7060388392997006,ternary
Zn0.323Lu0.343Er0.335,Zn,Lu,0.32263297425160875,0.342523418633227,1483.9277322146177,2457.6325930953876,8524.023448518728,1.3825552220021564,1.6209468102993565,0.0,Er,0.33484360711516425,ternary
Ti0.221Mg0.247Nd0.531,Ti,Mg,0.22131482437751596,0.24741570342119953,1140.5417738470544,2587.861345421778,5530.228979288442,1.2705865993326104,1.663812832832698,0.0,Nd,0.5312694722012845,ternary
Pt0.104Cr0.415W0.481,Pt,Cr,0.10393714048960626,0.4152049401686695,3146.686947328199,4612.30138505342,11932.504117728418,2.0610415706427627,1.3707602470084335,0.0,W,0.4808579193417243,ternary
Tm0.502Hg0.459Au0.050,Tm,Hg,0.501681104843244,0.45877437990189457,1047.484981086649,1369.479081801822,6304.87193814986,1.6716501408578441,1.6336035033285188,0.0,Au,0.05,ternary
Sm0.600Yb0.119Ce0.282,Sm,Yb,0.5995131838723068,0.11850860747507405,1165.2661765233865,2177.8457424583603,7094.048980606753,1.147605487044114,1.8381491392524927,0.0,Ce,0.28197820865261913,ternary
Pt0.396Ba0.406Sc0.199,Pt,Ba,0.3955196377806893,0.4057476465973293,1472.9238698037268,3568.0271370869523,9597.717254945308,1.5331766728574894,1.724281296183359,0.0,Sc,0.19873271562198136,ternary
Ho0.457Ba0.364Ru0.179,Ho,Ba,0.4571451643880631,0.3641544044726329,1395.6611150329406,2306.2668572878174,7486.179511543009,1.2795269206844297,1.8152465677763665,0.0,Ru,0.178700431139304,ternary
Hg0.377Pr0.234Ta0.389,Hg,Pr,0.37662784257348836,0.23392443542509225,1559.2778334843865,2830.7139668832106,8993.41106180402,1.6017618801794602,1.5624011662987114,0.0,Ta,0.3894477220014194,ternary
Tb0.158Au0.411Sr0.430,Tb,Au,0.15847037022854685,0.41134834490330696,1344.016420770812,2546.9733483792934,11788.065386624135,1.62781442393054,1.6930059832557138,0.0,Sr,0.4301812848681462,ternary
Tb0.449Re0.110Mg0.441,Tb,Re,0.4487572201946005,0.11040346235533591,1620.498387159133,2588.705741507045,6071.103168385509,1.280899026548782,1.5956287856953497,0.0,Mg,0.44083931745006355,ternary
Cd0.335Yb0.319Mo0.346,Cd,Yb,0.3346202185148276,0.31905534428396487,1678.731465014519,2617.6419387730407,8696.022889285274,1.6645298323570283,1.5791786251366724,0.0,Mo,0.34632443720120754,ternary
Sc0.555Ru0.270Nd0.176,Sc,Ru,0.5545350770837593,0.2695764993195816,1772.886781295516,3719.4973846215544,5718.638944987387,1.5477488062371836,1.5630991561032903,0.0,Nd,0.17588842359665913,ternary
Sm0.334Tm0.542Dy0.124,Sm,Tm,0.33423364062293826,0.5415866967044548,1626.016625796499,2576.1193344362982,8001.432863871564,1.2195359188699868,1.7834233640622938,0.0,Dy,0.12417966267260694,ternary
Yb0.502Tm0.482Ir0.050,Yb,Tm,0.5024493509677164,0.4815685013891402,1317.6713944443416,1828.5684500651569,9809.434707597824,1.2646549128009135,1.7895312416244988,0.0,Ir,0.05,ternary
Ho0.280Tb0.336Lu0.384,Ho,Tb,0.2801277838497336,0.3361624233415539,1817.1296574048556,3381.977811692447,8544.407434865243,1.2016472766779467,1.75,0.0,Lu,0.38370979280871254,ternary
Zr0.241Eu0.475Tc0.284,Zr,Eu,0.24122860763481832,0.47462715091627794,1809.165202599073,2995.278119836272,7551.21161081828,1.430260688006759,1.6355592969851027,0.0,Tc,0.2841442414489037,ternary
Dy0.187Sr0.178Cu0.635,Dy,Sr,0.18664555176900408,0.17815704720373823,1263.4054514608285,2601.043860246854,7237.709030283369,1.6038318299535257,1.5404603013900315,0.0,Cu,0.6351974010272576,ternary
Ba0.572Co0.347Au0.082,Ba,Co,0.5715273491806061,0.34686253929008504,1245.3452499416371,2577.4538519714206,6825.2196812721795,1.3680505979205437,1.807221879344485,0.0,Au,0.08161011152930886,ternary
Rh0.124Tc0.109Ce0.767,Rh,Tc,0.12352466806494153,0.10906529783750604,858.9802042420598,3468.3514493179014,7615.0062887149425,1.348359547268587,1.7337050170487762,0.0,Ce,0.7674100340975524,ternary
Pd0.179Re0.514Ho0.307,Pd,Re,0.17930273255227056,0.5139743442068311,3034.424637690856,4027.1654363084162,15912.018287943529,1.7482864611942792,1.4816543059239728,0.0,Ho,0.30672292324089834,ternary