formula,element_1,element_2,composition_1,composition_2,melting_point,boiling_point,density,electronegativity,atomic_radius,electronegativity_difference,element_3,composition_3,alloy_type
Sc0.169Ta0.831,Sc,Ta,0.16939021587868475,0.8306097841213153,2520.9466299085652,4695.665277559157,16106.853593694414,1.476285369776984,1.4754085323818027,0.1399999999999999,,,binary
Dy0.248Co0.752,Dy,Co,0.24782496083787198,0.752175039162128,1718.9685976336727,2940.2227332214784,8954.541297458183,1.7164355258470043,1.4491299843351488,0.6599999999999999,,,binary
Cu0.359Sr0.641,Cu,Sr,0.35888133606806627,0.6411186639319337,1218.6824323788776,2456.357766362686,5595.297845509107,1.290937269264663,1.766727131555757,0.95,,,binary
Rh0.309Al0.691,Rh,Al,0.3086282216523551,0.691371778347645,1287.719108266373,2736.5857997812946,5473.072725649314,1.816780908507078,1.2808628221652356,0.6699999999999997,,,binary
Rh0.703Mg0.297,Rh,Mg,0.7030053214251656,0.2969946785748344,1894.8162686787664,2886.472566881965,8381.448775835068,1.9919151617824105,1.3945492017862253,0.9699999999999998,,,binary
W0.566Hf0.434,W,Hf,0.5659686012439878,0.43403139875601215,3288.224657107864,5388.457822798123,16726.53216163526,1.8999267173186272,1.4368062797512025,1.0599999999999998,,,binary
Pr0.309Al0.691,Pr,Al,0.3092425206523142,0.6907574793476858,941.1237367067092,2960.604752330098,3556.2625806593214,1.4615635900868893,1.4355455123913887,0.4800000000000002,,,binary
Os0.289Er0.711,Os,Er,0.2890420619375964,0.7109579380624036,2435.831654395308,4150.033037970078,10584.288789139106,1.5174803794600926,1.6199310721280817,0.9600000000000002,,,binary
Dy0.472Ni0.528,Dy,Ni,0.4723159927535435,0.5276840072464565,1546.816665361175,2570.2409264833445,8171.302366003499,1.584101965000055,1.5389263971014175,0.69,,,binary
Zr0.649Pt0.351,Zr,Pt,0.6488588959128884,0.35114110408711163,2080.0893054318985,3827.9370566922807,10558.13681420479,1.663584048882756,1.4797717791825777,0.9499999999999997,,,binary
Tm0.652Hf0.348,Tm,Hf,0.6522323019350513,0.34776769806494867,1850.7236226602731,3210.826288294025,10782.500965026033,1.2673883849032475,1.6804464603870104,0.050000000000000044,,,binary
Gd0.394Cd0.606,Gd,Cd,0.3940351224817362,0.6059648775182638,913.5582427646581,2054.0785431495237,7898.123715534436,1.4969227899839492,1.6485087806204342,0.49,,,binary
Ru0.483Cu0.517,Ru,Cu,0.48254551978817917,0.5174544802118208,1907.3201728369654,4424.417145307055,12003.63085033844,2.044763655936454,1.325872724010591,0.30000000000000027,,,binary
Ca0.891Lu0.109,Ca,Lu,0.8910703695162472,0.10892963048375282,1046.8630975567191,2129.046370170627,2652.182140963765,1.0294110002306134,1.7945535184758123,0.27,,,binary
Os0.662Au0.338,Os,Au,0.6615525814845233,0.33844741851547666,2336.6006589056424,4928.285748825747,24794.71460423595,2.315072122295262,1.316922370925774,0.33999999999999986,,,binary
Sr0.742La0.258,Sr,La,0.7415959934240248,0.2584040065759752,964.9365662051281,1993.1972074898517,3898.6529315111834,0.9887606009863963,1.9870797996712013,0.15000000000000013,,,binary
Tc0.644Rh0.356,Tc,Rh,0.6442735359355184,0.3557264640644816,2425.454196274437,4574.313890978777,12241.12761649845,2.0351760563445027,1.35,0.3799999999999999,,,binary
Sm0.520Fe0.480,Sm,Fe,0.5204053249761341,0.4795946750238659,1629.7714267645067,2240.72887538534,8399.1307399137,1.4865324855157516,1.6341823962392605,0.6600000000000001,,,binary
Y0.389Tm0.611,Y,Tm,0.389427894819395,0.610572105180605,2022.36693578155,2699.3722017922487,7400.349181449551,1.2383171631554182,1.76947139474097,0.030000000000000027,,,binary
Pr0.149Ni0.851,Pr,Ni,0.14940643804534703,0.850593561954653,1397.6286563223016,3409.0643954300663,9059.350583712745,1.7934629783246292,1.4247032190226736,0.78,,,binary
Ce0.262Sc0.738,Ce,Sc,0.26172542317331826,0.7382745768266817,1608.6856458090622,3606.1977303718236,3822.3224326638046,1.2971858984384035,1.6654313557933296,0.24,,,binary
La0.232Zn0.768,La,Zn,0.23162972526620404,0.7683702747337959,854.2212681394012,1592.8124884378606,6893.486081957889,1.5226036511035879,1.4889778351597223,0.5499999999999998,,,binary
Y0.193Mg0.807,Y,Mg,0.1929920177477314,0.8070079822522687,1073.0204588914644,1836.9357404434663,2181.9186708951224,1.2926307184027042,1.5578976053243196,0.09000000000000008,,,binary
Tc0.567Tm0.433,Tc,Tm,0.5665181427528141,0.4334818572471859,2136.2491108953773,3826.4550059082876,10094.419030553861,1.618236792789329,1.5233927428988745,0.6499999999999999,,,binary
Fe0.456Sc0.544,Fe,Sc,0.4563861537497764,0.5436138462502236,1521.4177213278667,3662.5191624341637,5936.875915649048,1.574501492262395,1.5087227692500447,0.47,,,binary
Cr0.206Ca0.794,Cr,Ca,0.2055554718568792,0.7944445281431208,1161.5395143753915,2139.0044869004064,2563.2994263368287,1.1356666114255403,1.7177778112572484,0.6599999999999999,,,binary
Au0.551Ca0.449,Au,Ca,0.5511289480789707,0.4488710519210293,1270.1398982314129,2587.091821875967,11066.895278525237,1.848738580041615,1.5519919733644634,1.54,,,binary
Ce0.638Ca0.362,Ce,Ca,0.6382141697818955,0.3617858302181045,999.9650509691268,2750.283944984615,4387.28183964817,1.0765857003738275,1.8319107084890949,0.1200000000000001,,,binary
Hf0.117Yb0.883,Hf,Yb,0.11741636631458229,0.8825836336854177,1157.4271255519407,1856.4816853016728,6834.48773052614,1.1234832732629165,1.7265167267370836,0.19999999999999996,,,binary
Pd0.697Al0.303,Pd,Al,0.6966435862654525,0.30335641373454747,1662.8466515356101,3562.5508528635364,8661.460327358807,2.021019715896617,1.3544965379398177,0.5900000000000001,,,binary
Nd0.136Mn0.864,Nd,Mn,0.13623184218226303,0.863768157817737,1524.3980324086717,2599.244175870879,7727.002145609518,1.4941449447052721,1.4613043289820185,0.41000000000000014,,,binary
Re0.151Er0.849,Re,Er,0.1510079296896666,0.8489920703103334,2067.8078325475967,3816.8209547081788,11395.408803424416,1.33966523359518,1.6895968281241334,0.6599999999999999,,,binary
Cr0.889Mn0.111,Cr,Mn,0.8889097984658215,0.11109020153417848,1845.8472010185726,3126.2246843565363,7813.43821180647,1.6477800778312401,1.4,0.10999999999999988,,,binary
Sr0.330V0.670,Sr,V,0.3296725655130561,0.6703274344869439,1671.3658142428856,3023.841497913519,5301.85784851411,1.4058226554511217,1.5642871675834864,0.6799999999999999,,,binary
Nb0.713Cu0.287,Nb,Cu,0.7126621463389694,0.2873378536610306,2300.771717605609,4977.200786537667,10720.180028382783,1.6862013560983091,1.421266214633897,0.2999999999999998,,,binary
Yb0.871Tb0.129,Yb,Tb,0.8710260535500165,0.1289739464499835,1073.9984962016115,1492.2281965103846,6988.748409281308,1.1,1.75,0.0,,,binary
Os0.459Ir0.541,Os,Ir,0.4588297061301486,0.5411702938698514,3215.5643270305395,4854.240050368336,25920.61501752461,2.2,1.3270585146934928,0.0,,,binary
Ir0.646Fe0.354,Ir,Fe,0.6461842832812331,0.3538157167187669,2087.966801036967,4433.894382858616,16366.487098533707,2.0690881848140563,1.3676907858359384,0.3700000000000001,,,binary
Dy0.206La0.794,Dy,La,0.2063918450685387,0.7936081549314613,1515.9165664285572,4265.291786111818,6133.130532459573,1.1247670214082248,1.9087216309862922,0.11999999999999988,,,binary
Re0.243Ni0.757,Re,Ni,0.24277890320328935,0.7572210967967107,2030.191654256328,4167.2319726088,11389.844851172025,1.9075722109679671,1.35,0.010000000000000009,,,binary
La0.523Pt0.477,La,Pt,0.5230740316352075,0.4769259683647925,1590.3689864352364,3922.241452673886,10725.164616081378,1.662772642670455,1.6638444189811246,1.1799999999999997,,,binary
Yb0.768Ru0.232,Yb,Ru,0.7678572893349724,0.23214271066502756,1445.5324302425943,2006.1305050322246,7526.050603704561,1.3553569817315303,1.6455357802007375,1.1,,,binary
Ti0.470Hf0.530,Ti,Hf,0.47040312095582404,0.529596879044176,2563.6278882324395,3722.0608541891756,9914.672522625224,1.4128967490293978,1.4794395318566265,0.24,,,binary
Yb0.439La0.561,Yb,La,0.43930242378672124,0.5606975762132788,1118.7231610057277,2667.259362631564,6832.748596079196,1.1,1.8621395152426556,0.0,,,binary
Ir0.298Ru0.702,Ir,Ru,0.29800963080302045,0.7019903691969795,2736.3263127619894,4762.9561451214295,16927.790576859312,2.2,1.314900481540151,0.0,,,binary
Re0.321Zn0.679,Re,Zn,0.3205197822361019,0.6794802177638981,1527.0154163966936,2518.6592087504287,10331.253753348437,1.7301299455590253,1.35,0.25,,,binary
Yb0.126Ni0.874,Yb,Ni,0.12577385192798485,0.8742261480720152,1512.5564902512303,3845.940993754568,9686.100348344982,1.8081231799383322,1.400309540771194,0.8099999999999998,,,binary
Dy0.592Au0.408,Dy,Au,0.59193856576713,0.40806143423287,1332.0812232906478,2566.755980561478,13560.654640820943,1.7586410931873884,1.586775426306852,1.32,,,binary
Ti0.265Rh0.735,Ti,Rh,0.26486529748017135,0.7351347025198287,2276.7324440999255,4071.8005490448263,10082.393217853767,2.0839996798646734,1.3632432648740087,0.7399999999999998,,,binary
Co0.127Sm0.873,Co,Sm,0.12686102060342463,0.8731389793965754,1381.115398438773,2291.33486910598,7614.096810997016,1.2600713246284314,1.7865694896982878,0.71,,,binary
Sm0.663Ho0.337,Sm,Ho,0.6626290134919429,0.3373709865080571,1148.615911684352,2330.553498656795,7172.029828142299,1.1902422591904833,1.8162629013491944,0.06000000000000005,,,binary
Cr0.692Rh0.308,Cr,Rh,0.6924328627838893,0.30756713721611073,2236.0345850081453,4231.8293575603475,9095.579833479582,1.8506916250739887,1.3846216431391944,0.6199999999999999,,,binary
Pt0.287Mg0.713,Pt,Mg,0.28747142279004934,0.7125285772099507,1205.4890177499337,2347.3510857247657,7653.564494533374,1.5888472801063478,1.4568792865814926,0.9699999999999998,,,binary
Tc0.212Cr0.788,Tc,Cr,0.2121084600919237,0.7878915399080764,2326.8353538280535,3481.2753723155756,9723.352677139588,1.7109060304220618,1.3893945769954037,0.24,,,binary
Cd0.753Ru0.247,Cd,Ru,0.7526290054106535,0.24737099458934653,968.6164192641892,1965.749998749194,8683.65296884319,1.8161592072405668,1.4881572513526633,0.5100000000000002,,,binary
Yb0.355Pr0.645,Yb,Pr,0.3551229570953537,0.6448770429046463,1233.49752368079,2560.36057662401,6339.047344528835,1.1193463112871394,1.8144877042904646,0.029999999999999805,,,binary
Sm0.755Ho0.245,Sm,Ho,0.7547059912721223,0.24529400872787765,1397.914046577001,2525.463651869165,8414.540529114887,1.1847176405236726,1.8254705991272124,0.06000000000000005,,,binary
Rh0.801Hf0.199,Rh,Hf,0.8010066577390458,0.19899334226095422,2005.1940053687722,4171.4763922472475,11725.564011828508,2.0849865245842647,1.389798668452191,0.9799999999999998,,,binary
Dy0.277Y0.723,Dy,Y,0.27683419235682605,0.723165807643174,1543.7976242462796,3322.4130307763626,5428.419085376366,1.22,1.7861582903821587,0.0,,,binary
Hf0.149Ag0.851,Hf,Ag,0.14876610968540974,0.8512338903145903,1769.591939210247,2919.286210916334,9406.605802487127,1.8362773508981918,1.5925616945157297,0.6299999999999999,,,binary
Nd0.829Lu0.171,Nd,Lu,0.8292621324964355,0.17073786750356446,1324.9164946401893,3774.3419634685274,8847.789782951117,1.1621959227754632,1.8329262132496438,0.13000000000000012,,,binary
Gd0.442Ho0.558,Gd,Ho,0.4417604658356348,0.5582395341643652,1403.607492678073,2620.456435998686,9971.689266081781,1.2167471860249308,1.772088023291782,0.030000000000000027,,,binary
Ba0.878Cr0.122,Ba,Cr,0.8778321882749487,0.12216781172505131,1188.736036325693,2046.2844831691534,4164.833116780531,0.9840692150282895,2.0583741412062118,0.7699999999999999,,,binary
Tb0.405Dy0.595,Tb,Dy,0.4049237059700762,0.5950762940299238,1221.986382227364,3109.5136812728424,8692.478161384515,1.1714091552835908,1.75,0.11999999999999988,,,binary
Y0.657Ta0.343,Y,Ta,0.6570467258472719,0.34295327415272814,2523.8814671244877,3897.045840246762,8722.591385406366,1.3160269167627638,1.6799663540465453,0.28,,,binary
Au0.340Zn0.660,Au,Zn,0.33991079554832093,0.6600892044516791,827.4229535703367,1889.5402435581589,10263.963136737957,1.9525206080380055,1.35,0.8900000000000001,,,binary
Nb0.479La0.521,Nb,La,0.47881505632977595,0.521184943670224,1859.4040811401803,3919.530906579892,7782.410008689051,1.339407528164888,1.710592471835112,0.5,,,binary
Ru0.786Hf0.214,Ru,Hf,0.7860329908584166,0.2139670091415834,2807.3323679880473,4413.880268956823,12619.198465283858,2.0074296917725754,1.3534917522853958,0.9000000000000001,,,binary
Zn0.832Ca0.168,Zn,Ca,0.8317929390527244,0.16820706094727556,653.0857872003069,1238.785103784882,6168.597059769847,1.5406654103842707,1.4256931774262742,0.6499999999999999,,,binary
Ce0.874Au0.126,Ce,Au,0.8742289508373013,0.12577104916269866,1390.6522714707367,3172.6823750353296,9486.719817632851,1.2985948898110322,1.7871144754186508,1.42,,,binary
Ce0.207Y0.793,Ce,Y,0.20727420084726245,0.7927257991527376,1811.7133035057645,3715.3958640483506,5798.7953263248555,1.1992725799152737,1.8103637100423633,0.09999999999999987,,,binary
Rh0.263Pd0.737,Rh,Pd,0.2626693864480435,0.7373306135519565,2007.4884930961534,3561.688425761981,12070.69706655968,2.2210135509158437,1.3868665306775978,0.07999999999999963,,,binary
Tb0.838Fe0.162,Tb,Fe,0.8377808836089778,0.16221911639102216,1861.4557001148414,3820.670979483118,7652.291882428923,1.2184199549654462,1.6932233092631424,0.73,,,binary
Os0.529Fe0.471,Os,Fe,0.5285084290777725,0.4714915709222275,2257.968061803226,4184.132221261025,14409.0717940728,2.025548118758776,1.3471491570922227,0.3700000000000001,,,binary
Mo0.315Cr0.685,Mo,Cr,0.31476927028398494,0.6852307297160151,2390.0947564430166,4004.4227865093494,7756.663551362548,1.8173846351419924,1.4157384635141992,0.5000000000000002,,,binary
Ho0.582Sm0.418,Ho,Sm,0.5823376359912608,0.41766236400873924,1564.79952038197,2625.147566947973,8887.82745916313,1.2049402581594757,1.791766236400874,0.06000000000000005,,,binary
Mn0.744Mo0.256,Mn,Mo,0.7437204942804362,0.2562795057195638,1451.3023661169755,2813.000722188258,8363.189827347682,1.706330498488934,1.412813975285978,0.6100000000000001,,,binary
Nd0.637Yb0.363,Nd,Yb,0.6371604177883295,0.36283958221167045,1371.3736012628112,2550.2176515195424,5456.151470779586,1.1254864167115333,1.8137160417788332,0.039999999999999813,,,binary
Tc0.267Sr0.733,Tc,Sr,0.26711127084180025,0.7328887291581998,1506.5266594285656,2271.001217673934,4404.529659008473,1.2037557072997103,1.82637767395283,0.95,,,binary
W0.866Hf0.134,W,Hf,0.8656158084213386,0.13438419157866144,3314.4975404039233,5594.885573279851,17335.89768776285,2.2175527569266187,1.3768768383157324,1.0599999999999998,,,binary
Al0.850Tc0.150,Al,Tc,0.8497278105617981,0.15027218943820186,902.8735869036984,3328.3729210479123,4535.200400268935,1.6535789349370784,1.2650272189438203,0.2899999999999998,,,binary
Lu0.698Ni0.302,Lu,Ni,0.6975033819649934,0.3024966180350066,1986.9436105605323,3125.808412609822,9366.169519172969,1.4635978355424042,1.6290013527859974,0.6399999999999999,,,binary
Sr0.657Rh0.343,Sr,Rh,0.6565010285639854,0.3434989714360146,1456.7826452712045,2596.1885923287086,6404.375381610235,1.4068536320098994,1.7767256685665904,1.3299999999999998,,,binary
Tm0.417Tc0.583,Tm,Tc,0.4173056478209881,0.5826943521790119,2014.954852640383,3601.2257249605564,11074.982539659672,1.6287513289163578,1.5169222591283953,0.6499999999999999,,,binary
Rh0.357Ce0.643,Rh,Ce,0.35729200706192177,0.6427079929380782,1701.9621453831485,4017.07248589674,9437.575484204352,1.5344587281918294,1.6713539964690391,1.1599999999999997,,,binary
Cd0.473Ir0.527,Cd,Ir,0.4730003686764843,0.5269996313235157,1738.9743244015986,3388.1597230455077,16684.76243639523,1.958769811974993,1.4446000737352969,0.5100000000000002,,,binary
Tb0.347Re0.653,Tb,Re,0.3467378274295426,0.6532621725704574,2581.2580981443944,5757.126231628491,17738.631036475537,1.6226097380563658,1.488695130971817,0.7999999999999998,,,binary
Os0.806Sc0.194,Os,Sc,0.8062495618896323,0.19375043811036774,2883.261316955072,4629.0957211731475,19365.436487607254,2.037249631987291,1.3581251314331104,0.8400000000000001,,,binary
Ca0.742Co0.258,Ca,Co,0.7422532974560169,0.25774670254398313,1342.7494997268186,2170.9306043218,3551.666614361058,1.2268170982387052,1.6840139838552077,0.8799999999999999,,,binary
Yb0.709Sr0.291,Yb,Sr,0.709303175447769,0.290696824552231,1267.4999638469558,1686.2730903961117,5528.0677332805435,1.0563954763171655,1.8226742061380579,0.15000000000000013,,,binary
Ta0.397Tc0.603,Ta,Tc,0.3965639371450068,0.6034360628549932,3031.886382449949,4493.6926434887555,14081.189195311668,1.7413744251419971,1.3896563937145006,0.3999999999999999,,,binary
Au0.550V0.450,Au,V,0.5500197819714835,0.4499802180285165,2028.6791347919002,3303.3063291562953,12231.918443480092,2.1305180015940497,1.35,0.9100000000000001,,,binary
Ru0.217Lu0.783,Ru,Lu,0.21673817048203886,0.7832618295179612,1937.649441120083,3419.0148629856617,9573.831419508033,1.4715664985482964,1.6524678232830825,0.9300000000000002,,,binary
Pd0.848Ce0.152,Pd,Ce,0.8478066002370829,0.15219339976291713,1648.930510916353,2833.0867467769053,11228.71043285576,2.0356311282560497,1.4684870298933128,1.08,,,binary
Nd0.434Yb0.566,Nd,Yb,0.43406245884413897,0.565937541155861,1290.6251907054786,2087.083582502572,7683.171578025096,1.1173624983537656,1.793406245884414,0.039999999999999813,,,binary
Zn0.364Mo0.636,Zn,Mo,0.363892228782288,0.636107771217712,2201.2005336523434,3920.2178224813388,8536.290077202593,1.9744149633210333,1.4136107771217712,0.5100000000000002,,,binary
Ir0.767Pr0.233,Ir,Pr,0.7666901722295881,0.23330982777041187,2585.3336990301755,3951.1668534065084,20598.58695755018,1.9503584842856596,1.466654913885206,1.0700000000000003,,,binary
Ba0.624Ce0.376,Ba,Ce,0.6236863728968175,0.3763136271031825,1043.2129859219792,2853.290240846949,4153.03081133919,0.976552134233732,2.037105911869045,0.2300000000000001,,,binary
Ho0.306W0.694,Ho,W,0.30586140610790624,0.6941385938920938,2818.1632474558496,5257.160840034407,14529.910014021243,2.014376611098066,1.4723445624431626,1.13,,,binary
Ba0.613Yb0.387,Ba,Yb,0.6133555635189658,0.3866444364810342,1085.562372065669,1625.0514035717,5091.191327469205,0.9711953316610171,1.9953422254075863,0.21000000000000008,,,binary
Ba0.235Ca0.765,Ba,Ca,0.2345869167612328,0.7654130832387672,953.9211941846202,1949.590755225124,2135.5290585910216,0.9741954391562644,1.8821054208664316,0.10999999999999999,,,binary
Re0.212Zr0.788,Re,Zr,0.21196682286449386,0.7880331771355061,2242.1969253743,5220.753514700023,9836.097697897363,1.4508210890327615,1.5076066354271012,0.5699999999999998,,,binary
La0.247Ba0.753,La,Ba,0.24723821828901402,0.752761781710986,991.2616001115383,2282.5513583628044,3344.9300951616096,0.941920025840693,2.100552356342197,0.21000000000000008,,,binary
La0.866Tb0.134,La,Tb,0.8657895151301148,0.13421048486988518,1295.2750262700165,3130.1241168384963,6485.469530555236,1.1,1.9231579030260229,0.0,,,binary
Y0.771V0.229,Y,V,0.7712547948759638,0.22874520512403618,1837.1297440713051,3871.446526859132,4700.292717516285,1.3137855341008549,1.6970646576941837,0.4099999999999999,,,binary
Mn0.139Dy0.861,Mn,Dy,0.1388115153571298,0.8611884846428702,1603.0403893790983,2972.4720939228764,8682.425151000525,1.265807800067853,1.7014159696250046,0.33000000000000007,,,binary
Al0.210Au0.790,Al,Au,0.20999322439756815,0.7900067756024318,1292.1213698872496,3201.7452126475623,13385.741448013137,2.3447063013102616,1.3290006775602432,0.9299999999999999,,,binary
Gd0.154Ru0.846,Gd,Ru,0.15437435333233812,0.8456256466676619,2634.5843201799535,4546.448576932025,10492.6048507601,2.0456256466676623,1.3771871766661692,1.0000000000000002,,,binary
Zn0.275Al0.725,Zn,Al,0.274975737963515,0.7250242620364851,846.090503261066,2339.506854025327,3868.1575362397425,1.6209990295185408,1.2774975737963516,0.039999999999999813,,,binary
Ca0.148Os0.852,Ca,Os,0.14836009513041512,0.8516399048695849,3080.4647856555025,5443.143127812656,21593.416891018398,2.0219678858435017,1.3741800475652075,1.2000000000000002,,,binary
Gd0.847Dy0.153,Gd,Dy,0.8471229768784008,0.15287702312159923,1389.6307974799133,3631.244906566475,9063.565899832116,1.203057540462432,1.7923561488439201,0.020000000000000018,,,binary
Sr0.490Dy0.510,Sr,Dy,0.49028350720245706,0.5097164927975429,1424.1575341354624,2505.4680541836988,6784.568010829472,1.0876234530553366,1.8725708768006144,0.27,,,binary
Al0.541La0.459,Al,La,0.5413148487290055,0.4586851512709945,1160.2592725408676,3308.69161851296,4727.992637522163,1.3760705728517928,1.5710796058896963,0.51,,,binary