nsites,elements,formula,volume,density,atomic_density,material_id,formation_energy_per_atom,energy_above_hull,band_gap,total_magnetization,element_1,element_2,alloy_type
4,"['Co', 'Ni', 'Ti']",Ti2CoNi,53.449942030290636,6.62851239520033,13.362485507572659,mp-1217078,-0.360996084166666,0.030916730000000003,0.0,0.734281,Co,Ni,binary
4,"['Co', 'Ga', 'Ni']",Ga2CoNi,48.69453512894124,8.766468060930872,12.17363378223531,mp-1224798,-0.29168813023809403,0.022079342261903,0.0,0.521355999999999,Co,Ni,binary
4,"['Co', 'Ni', 'Pt']",CoNiPt2,53.00930807629847,15.906881138538052,13.252327019074617,mp-1226004,-0.088807944999998,0.0,0.0,3.7057652,Co,Ni,binary
4,"['Al', 'Co', 'Ni']",Al2CoNi,46.3187849050348,6.151529119284306,11.5796962262587,mp-1228913,-0.625177445,0.0,0.0,0.7927797,Co,Ni,binary
10,"['Co', 'Ni', 'O']",CoNiO3,87.35959763657713,6.296421914378502,8.735959763657714,mp-1178424,-1.136651947999999,0.0,0.0,2.000238,Co,Ni,binary
4,"['As', 'Co', 'Ni']",CoNiAs2,56.51791854205768,7.858464274520028,14.12947963551442,mp-1226009,-0.23456280683238903,0.037218823011361,0.0,0.0067731,Co,Ni,binary
4,"['Co', 'Ni', 'Te']",CoNiTe2,71.52071501967005,8.6561372589003,17.880178754917512,mp-1226017,-0.137721520703131,0.049292338046871005,0.0,0.0576873,Co,Ni,binary
6,"['Co', 'Ni', 'Tb']",Tb2Co3Ni,92.64651113543258,9.917791775836138,15.441085189238763,mp-1217693,-0.23407004722222402,0.004972128611109,0.0,3.0950409,Co,Ni,binary
6,"['Co', 'Ni', 'Si']",CoSi4Ni,75.85510751288385,5.03422707592568,12.642517918813974,mp-1226006,-0.42309461000000004,0.0,0.0,0.0,Co,Ni,binary
6,"['Co', 'Ho', 'Ni']",HoCo4Ni,82.13598130193382,9.286787613124723,13.68933021698897,mp-1223872,-0.131684024166666,0.044765474280302,0.0,6.1040781,Co,Ni,binary
9,"['Co', 'Ni', 'P']",CoNiP,94.79555380668903,7.809122523164001,10.532839311854337,mp-1226037,-0.507503998214284,0.0,0.0,0.0,Co,Ni,binary
4,"['Cu', 'Ni']",CuNi3,42.799672693581684,9.297002557231611,10.699918173395421,mp-1184054,0.0430200825,0.0430200825,0.0,1.9105648,Ni,Cu,binary
2,"['Cu', 'Ni']",CuNi,21.65107456024777,9.375206695303214,10.825537280123886,mp-1225687,0.041428610000000005,0.041428610000000005,0.0,0.0001058,Ni,Cu,binary
6,"['Ce', 'Cu', 'Ni']",CeCuNi,104.28974798032046,8.354635033074917,17.38162466338674,mp-1226800,-0.25223091666666503,0.022619536666666003,0.0,0.0349673,Ni,Cu,binary
4,"['Cu', 'Ni', 'Zn']",Zn2CuNi,48.209250953734404,8.716412109275309,12.052312738433601,mp-1215438,-0.163784274999999,0.009078507499999,0.0,5e-07,Ni,Cu,binary
4,"['Cu', 'Ni', 'Sb']",CuNiSb2,72.89306394744521,8.332175103986186,18.223265986861303,mp-11834,-0.127051317500001,0.014259523749998,0.0,1e-07,Ni,Cu,binary
6,"['Cu', 'Ni', 'Tb']",TbCuNi4,80.56173995832737,9.424735648377471,13.426956659721228,mp-1217589,-0.308017847777776,0.0,0.0,1.3598674,Ni,Cu,binary
6,"['Cu', 'La', 'Ni']",LaCuNi4,85.03794472807952,8.537709982919951,14.172990788013253,mp-1222960,-0.272428915833331,0.0,0.0,0.9950072,Ni,Cu,binary
5,"['Cu', 'N', 'Ni']",CuNi3N,50.7404251421085,8.300429841600447,10.1480850284217,mp-1017556,-0.027755303750001,0.0,0.0,1.0067557,Ni,Cu,binary
4,"['Cu', 'Ga', 'Ni']",GaCuNi2,45.253816655745375,9.197539101202702,11.313454163936344,mp-1184005,-0.24082098499999902,0.008674284375,0.0,2.13e-05,Ni,Cu,binary
4,"['Cu', 'Ni', 'Pm']",Pm2CuNi,85.46023719887461,8.01003660800462,21.365059299718652,mp-1186454,-0.19093916125000002,0.0,0.0,1.94e-05,Ni,Cu,binary
4,"['Cu', 'Ni', 'Sc']",Sc2CuNi,65.03918813976308,5.4165097313634885,16.25979703494077,mp-1186945,-0.3903659975,0.0036201899999990005,0.0,2.6e-06,Ni,Cu,binary
4,"['Cu', 'Ni', 'Sn']",CuNi2Sn,53.33112882077918,9.329796432727012,13.332782205194794,mp-30592,-0.135795281249999,0.034833898541666006,0.0,1.3300000000000001e-05,Ni,Cu,binary
4,"['Cu', 'Ni', 'Zn']",ZnCuNi2,44.74828788532739,9.141359412114879,11.187071971331848,mp-971738,-0.12022703749999901,0.007258230000000001,0.0,1e-07,Ni,Cu,binary
4,"['Cu', 'Er', 'Ni']",Er2CuNi,78.59705575138108,9.650024411319189,19.64926393784527,mp-1225072,-0.38917302749999905,0.0,0.0,0.0,Ni,Cu,binary
8,"['Cu', 'Ni', 'Ti']",TiCuNi2,96.95025606759131,7.837648331024276,12.118782008448914,mp-1079193,-0.336294755833332,0.021118203437501003,0.0,0.0006943,Ni,Cu,binary
6,"['Cu', 'Nd', 'Ni']",NdCuNi4,83.11818565565254,8.841516695534674,13.853030942608756,mp-1220204,-0.259869711250019,0.0,0.0,0.0009885,Ni,Cu,binary
6,"['Cu', 'Er', 'Ni']",ErCuNi,95.33498990748,10.084931112589874,15.889164984579999,mp-1225545,-0.33290044499999805,0.048841962500001,0.0,0.010701299999999001,Ni,Cu,binary