formula,element_1,element_2,composition_1,composition_2,melting_point,boiling_point,density,electronegativity,atomic_radius,electronegativity_difference,element_3,composition_3,alloy_type
V0.237Rh0.414Zr0.349,V,Rh,0.23688813851235743,0.41404160163453796,2358.4925023025344,4528.264128857872,7998.997353104525,1.7944059631065181,1.4198140519706208,0.0,Zr,0.3490702598531046,ternary
Cd0.449Dy0.461Mn0.090,Cd,Dy,0.4490219962840444,0.46120469459233704,1368.3583682354326,1794.6749680965306,8679.275092599646,1.460665530264295,1.6287749425499247,0.0,Mn,0.08977330912361858,ternary
Tc0.582Ba0.373Au0.050,Tc,Ba,0.5823371922619226,0.3729769709173262,1853.0025782057826,3535.81931808701,10171.881484189611,1.565390169414073,1.655555697025847,0.0,Au,0.05,ternary
Os0.352Mn0.490Co0.158,Os,Mn,0.35219742121748276,0.48975532101844677,2033.4713756620786,3036.4646039583135,13054.32720821188,1.831083918853507,1.356877894990048,0.0,Co,0.15804725776407047,ternary
Au0.226Mg0.353Zr0.421,Au,Mg,0.22638330909375878,0.3530322858863889,1462.6839391174149,4225.530750155689,8243.53752128774,1.5968631582857205,1.4870717238869289,0.0,Zr,0.4205844050198523,ternary
Ca0.419Ti0.438Mn0.143,Ca,Ti,0.4194333117249821,0.4378110332404678,1471.4998608558521,2351.118684110409,2995.9467954697757,1.3149335682188552,1.5677733246899928,0.0,Mn,0.14275565503455012,ternary
Ca0.449Ir0.513W0.050,Ca,Ir,0.4489413177497335,0.513388539437631,1877.0671524025738,3533.785814713652,15183.045297365778,1.6963961045125218,1.568668900190322,0.0,W,0.05,ternary
Pt0.225V0.455Al0.320,Pt,V,0.22530286652849132,0.45454980253106714,1947.4783022171557,3569.83724758995,8122.0891089471725,1.7700439166247104,1.317985266905956,0.0,Al,0.32014733094044157,ternary
Cu0.474Ta0.342Dy0.183,Cu,Ta,0.47433801391812247,0.3423796186646707,2134.2548114253,3793.0958222771005,13474.903703937292,1.638416142690431,1.4575509088333498,0.0,Dy,0.18328236741720683,ternary
Mn0.429Fe0.457Ce0.115,Mn,Fe,0.42851130233069357,0.4567907696590514,1570.3713345322747,2823.8325308891162,5888.702615366513,1.6285813064601247,1.4516140676046145,0.0,Ce,0.11469792801025502,ternary
Mg0.470Cu0.499Sr0.050,Mg,Cu,0.4701311454443097,0.4992794491540374,1141.5824888567463,2515.400446076438,4825.359731655064,1.6120027539247168,1.4792239745244151,0.0,Sr,0.05,ternary
Zr0.150Ti0.247Sm0.603,Zr,Ti,0.15025756052597092,0.24707232685443528,1489.0478013066509,3058.8987959494657,5560.045227115796,1.2854579706202962,1.693740184757713,0.0,Sm,0.6026701126195938,ternary
La0.184Lu0.436Pt0.380,La,Lu,0.1842266867964912,0.43569607795621845,2028.4287029952018,3643.515147421958,12913.69984052253,1.6225594708443598,1.6348144432603822,0.0,Pt,0.3800772352472903,ternary
Al0.177Ho0.279Ag0.544,Al,Ho,0.17674823865539577,0.27904349482782265,1172.4555227894245,2754.1315117228582,10765.519404551262,1.6781101172507973,1.579994640694785,0.0,Ag,0.5442082665167816,ternary
Tc0.546Tm0.366V0.088,Tc,Tm,0.5463438528591548,0.3661494024700168,2355.005029310204,3302.8197349550283,11392.295635823635,1.6383760673333654,1.4964597609880068,0.0,V,0.08750674467082842,ternary
Mg0.481Er0.487Cr0.050,Mg,Er,0.4807958249854966,0.48701765841226,1385.0831464095409,2652.8110459647196,6060.303330207218,1.316744427162203,1.6434746396997,0.0,Cr,0.05,ternary
Tb0.430Dy0.151Tm0.419,Tb,Dy,0.4300202038027714,0.1513966433354407,1210.839371648384,2578.984266314155,9555.041835479633,1.1809550701295213,1.75,0.0,Tm,0.41858315286178793,ternary
Er0.126Hf0.102Mg0.771,Er,Hf,0.12620762809442485,0.10233286637315411,1214.0665721057576,1747.5782423933942,3603.3006634432363,1.300142137369659,1.536668550342264,0.0,Mg,0.771459505532421,ternary
Ir0.287Mo0.219Rh0.493,Ir,Mo,0.28732235174162823,0.21927016153926285,2044.2700293182447,4346.841342221338,18199.876418930882,2.2307017924759585,1.3719270161539265,0.0,Rh,0.49340748671910895,ternary
Fe0.114Ti0.107Au0.779,Fe,Ti,0.11397208492938662,0.10727998218356308,1573.28135306911,3871.4418139686204,17858.843060144074,2.3517998375165727,1.3610626033556477,0.0,Au,0.7787479328870504,ternary
Mo0.132Ho0.579Dy0.289,Mo,Ho,0.1315857426098281,0.5793726275946426,2063.5660174857007,3833.2494419341438,9256.392920107604,1.3494843243291847,1.7105242772170515,0.0,Dy,0.2890416297955293,ternary
Co0.462Dy0.122Zr0.416,Co,Dy,0.46200574847700915,0.12200625619173053,1871.314519438823,4162.149435675958,9006.869865895507,1.5706824734812646,1.4820001015429443,0.0,Zr,0.4159879953312603,ternary
Sc0.261Co0.413Ta0.325,Sc,Co,0.261339787997507,0.4133932172862721,2165.8822964468322,3709.4246427343405,10012.114616798439,1.6205018522491323,1.447861646470999,0.0,Ta,0.3252669947162209,ternary
Eu0.298Tc0.314La0.389,Eu,Tc,0.29753196067706955,0.31394014776052515,1682.5389934153034,3686.9842361039478,6482.0100933236,1.3809053142761272,1.7318827152759781,0.0,La,0.3885278915624053,ternary
Ru0.278Tc0.187Co0.535,Ru,Tc,0.2782881629592472,0.18681077888233424,2531.3979464165864,3547.278550633937,10076.989419201813,1.972788427724606,1.3360855918520378,0.0,Co,0.5349010581584186,ternary
Pt0.106Tb0.206Ta0.688,Pt,Tb,0.10599068920756374,0.20638396985372873,2560.7720247102848,6473.727048904855,15752.894030142057,1.5001191496404083,1.5013161220353624,0.0,Ta,0.6876253409387075,ternary
Ru0.508Mn0.425Dy0.067,Ru,Mn,0.5075424458029032,0.42497249776091195,1904.8921979868016,3724.5914693978048,10801.345543369567,1.8576325211479459,1.3728655251723743,0.0,Dy,0.06748505643618485,ternary
Os0.543V0.306Mn0.152,Os,V,0.5427300252711804,0.30554841794645127,2641.2114200568726,4712.264820866665,14011.051463951184,1.9272183898619835,1.3304495765755595,0.0,Mn,0.15172155678236832,ternary
Sm0.455Ba0.495Co0.050,Sm,Ba,0.4553570255983603,0.49511553333285513,1137.019149714334,1730.869729642865,4798.805712195567,1.0674205446163227,1.9744088940226052,0.0,Co,0.05,ternary
Pr0.562Zr0.395Pd0.050,Pr,Zr,0.5620919544398579,0.3949343164792803,1902.0083645110255,4672.422540710146,6950.284039192116,1.2704265494344822,1.722018306256622,0.0,Pd,0.05,ternary
Gd0.407Er0.561Ir0.050,Gd,Er,0.40677889447086013,0.5608211342807228,2090.340475762956,3374.7709418909076,9201.307491712152,1.2935528798731284,1.781138995038813,0.0,Ir,0.05,ternary
Er0.188Cu0.481W0.331,Er,Cu,0.18766552297530117,0.48085814149665473,2228.3951334862672,4009.3287822846546,12105.318510874922,1.9286198691792016,1.4250662091901205,0.0,W,0.3314763355280441,ternary
Er0.341Ta0.268Dy0.391,Er,Ta,0.3410651894938703,0.26755260906237655,2398.471192502343,3771.9479541752157,11669.703235545994,1.3017360343273428,1.669734217281287,0.0,Dy,0.39138220144375313,ternary
Sm0.291Nd0.420Mg0.289,Sm,Nd,0.2911856998168906,0.42029597737570823,1327.1534671309448,2509.1731161263647,4966.843741516401,1.197783685871765,1.7490185870174098,0.0,Mg,0.2885183228074012,ternary
Ru0.452Sc0.107Nd0.441,Ru,Sc,0.45231456528745917,0.10664584052788431,1681.580482518474,3875.957263218155,8759.90541035742,1.6429155241208413,1.5745655289599265,0.0,Nd,0.44103959418465655,ternary
Ti0.254Eu0.469Ni0.277,Ti,Eu,0.25442431433646495,0.46895664195901854,1500.21566746561,2626.956679842881,7638.256211624875,1.4829037879046048,1.5971995366963327,0.0,Ni,0.2766190437045165,ternary
Rh0.130Eu0.287Fe0.583,Rh,Eu,0.129961508279873,0.28726181424679786,1440.7717764958618,2290.219053226559,7969.5743654912585,1.7075077357504602,1.5227697409970653,0.0,Fe,0.5827766774733292,ternary
Cd0.288Mo0.421Zn0.291,Cd,Mo,0.2878739714785864,0.4210194484811526,1532.0509138984355,2796.626399149236,9416.153434392467,1.8762348775845312,1.4496767391438325,0.0,Zn,0.291106580040261,ternary
Rh0.594Yb0.322Sm0.084,Rh,Yb,0.5942756889234353,0.3218631011964963,2025.803568574195,2552.077537777585,9566.048903934028,1.8071155976212583,1.5206758454186329,0.0,Sm,0.0838612098800684,ternary
W0.259Cu0.493Ag0.248,W,Cu,0.25876933054477746,0.4934854409117023,2014.983114374284,3974.861885748298,14610.248796117656,2.026466248906903,1.4119363071358801,0.0,Ag,0.2477452285435202,ternary
V0.424Y0.244Au0.332,V,Y,0.42402321253981645,0.24422755222972822,1981.521195385304,3460.1043446922654,9187.658429875542,1.8317585076455258,1.4599023985033779,0.0,Au,0.3317492352304553,ternary
Ti0.266Ru0.221Yb0.513,Ti,Ru,0.2656351363015488,0.2211244918622726,1561.698760670701,2518.9400546598295,7783.133269163705,1.4601164010211813,1.5575216809564354,0.0,Yb,0.5132403718361787,ternary
La0.516Cr0.468Dy0.050,La,Cr,0.5155461613686594,0.4680730926878414,1763.635233307713,2993.077542084291,6635.704109168616,1.4051021113673419,1.7481173444318636,0.0,Dy,0.05,ternary
Er0.404Yb0.291Ru0.305,Er,Yb,0.4040315988388128,0.2907429602797028,2004.4412495454274,3153.2993558323283,9880.383224825886,1.4923124088070667,1.612648551603332,0.0,Ru,0.3052254408814844,ternary
Ta0.415Nb0.132Mg0.453,Ta,Nb,0.41489125641451274,0.1323084401706857,2228.979804288828,4253.7622691459155,9037.187135466176,1.4271987863682565,1.4726400151707402,0.0,Mg,0.4528003034148016,ternary
Ba0.126Mn0.596Mo0.278,Ba,Mn,0.12605343101310337,0.5960062844363302,1765.416595965049,2749.3048114187536,7945.3338863234885,1.6363483091071973,1.5084370874873558,0.0,Mo,0.2779402845505664,ternary
Tc0.187Cu0.374Fe0.439,Tc,Cu,0.18683791232344002,0.3744235501856389,1328.1325355859142,3357.9865189003663,8759.036219940142,1.8692883023756355,1.3719369268745458,0.0,Fe,0.43873853749092107,ternary
Tc0.139Rh0.462Sc0.398,Tc,Rh,0.13908225680231975,0.46249455238533854,1809.4109417244263,3358.937327135629,9238.79415774583,1.860599406867764,1.4496057977030854,0.0,Sc,0.3984231908123417,ternary
Hf0.199Zr0.312Yb0.489,Hf,Zr,0.19876813085721787,0.3120083875076305,1737.9369856220871,3180.7359207270365,8133.036390611719,1.2115155552981984,1.6478446963270303,0.0,Yb,0.4892234816351516,ternary
Sm0.243Rh0.324Hf0.433,Sm,Rh,0.24267644500889565,0.3241355961849012,2156.855244874072,4387.17952254082,11728.620161561206,1.586104946410047,1.5579758142656885,0.0,Hf,0.4331879588062032,ternary
Gd0.531Mo0.341Ag0.128,Gd,Mo,0.5312127634185885,0.34058535352355224,1696.935099308389,4485.263602779254,9378.072128262102,1.6205493140148475,1.655154749655185,0.0,Ag,0.1282018830578593,ternary
Os0.184Pt0.321Ir0.495,Os,Pt,0.18388301905510382,0.32068803542367086,2465.1917550204844,4036.566300700153,23019.019314058303,2.2256550428338935,1.340805849047245,0.0,Ir,0.4954289455212253,ternary
Sc0.317Eu0.178Lu0.505,Sc,Eu,0.3167152455461192,0.1779392340019487,1722.4452807174684,3657.66512636323,6614.61131435655,1.2860486257190145,1.720286636568277,0.0,Lu,0.5053455204519322,ternary
Sr0.314Ti0.142Ir0.545,Sr,Ti,0.3136986436472915,0.14161642774514224,1920.6252492676463,3904.933061289333,15077.332912271897,1.7144098531290919,1.5609849397579967,0.0,Ir,0.5446849286075662,ternary
Hf0.176Sm0.463La0.360,Hf,Sm,0.17639935446102964,0.46332411756999536,1520.2516321730984,3384.9381100786527,7938.924480102717,1.1677125591221056,1.8331078464585886,0.0,La,0.360276527968975,ternary
Pd0.253Ir0.242Ca0.505,Pd,Ir,0.25292364155353275,0.24161287387887717,1727.196542857823,3173.5173207370367,9878.253197372884,1.593443818518892,1.5901047501330923,0.0,Ca,0.50546348456759,ternary
Ce0.136Sm0.168Sr0.696,Ce,Sm,0.13596982484025558,0.16832817463153363,1083.4484602623063,2264.5857132673245,3036.43249196249,1.0101470686417808,1.9543553000792317,0.0,Sr,0.6957020005282109,ternary
Sr0.558Mo0.102Zn0.340,Sr,Mo,0.5580659687132605,0.10209027533543955,1346.2475354677604,1514.560081696999,4633.670947211594,1.3114198623217916,1.7229519071971633,0.0,Zn,0.3398437559512999,ternary
Sc0.346Yb0.563Os0.091,Sc,Yb,0.34572685884146115,0.5628455356352782,1540.520410529004,2347.9019362632525,7481.132431514567,1.2904593493743668,1.6569985486883136,0.0,Os,0.09142760552326068,ternary
Pt0.292Lu0.254Os0.454,Pt,Lu,0.29201871190052897,0.2539054127076593,2312.5058327308648,4647.702649031421,17829.80399686491,1.9872294631339193,1.4288583713134733,0.0,Os,0.4540758753918117,ternary
Nd0.453Mn0.540Au0.050,Nd,Mn,0.4525849622763307,0.5400581381856022,1517.7277078823806,2924.448961928337,8151.874415539285,1.4800369711827004,1.6608635736710546,0.0,Au,0.05,ternary
Ni0.181Ir0.481Pr0.337,Ni,Ir,0.18118119163151156,0.48147542788199316,1927.2040085649369,3836.414575019081,15183.33582932875,1.7865000373063116,1.5186716902432478,0.0,Pr,0.33734338048649526,ternary
Pd0.355Yb0.344Re0.301,Pd,Yb,0.35480418171408945,0.3443109215608975,2262.142298024018,3215.231021487273,11735.94752351751,1.730992517265509,1.5054645777100635,0.0,Re,0.30088489672501306,ternary
Er0.409Os0.550Cr0.050,Er,Os,0.40879476124590625,0.5504800479334382,2829.055164664287,4326.40304657068,17880.59701960251,1.8009616093984877,1.5010148944938055,0.0,Cr,0.05,ternary
Lu0.117Rh0.507Sr0.376,Lu,Rh,0.11725378603290224,0.5065632051282163,1595.020938354805,2518.3962935731024,7999.580996546188,1.661250274351056,1.6414204701584338,0.0,Sr,0.37618300883888145,ternary
Gd0.114Tm0.433Ho0.453,Gd,Tm,0.11412803939533014,0.432837818731865,1618.9846113457547,2698.7706982745317,8352.535394484965,1.2352329151927774,1.7557064019697666,0.0,Ho,0.4530341418728049,ternary
Zn0.328Pd0.441Sm0.232,Zn,Pd,0.3277353850911007,0.4405332421785868,1443.604747115177,2227.2842066980616,9481.033047763161,1.7810622242876728,1.4878923484740858,0.0,Sm,0.23173137273031252,ternary
Pd0.389Rh0.431Sm0.180,Pd,Rh,0.38917089831746454,0.43130233303277155,1947.940431178544,3408.644755458628,11341.344241217428,2.049591614933365,1.4592219292407551,0.0,Sm,0.1795267686497639,ternary
Zr0.485Al0.422Ni0.092,Zr,Al,0.48548609276229815,0.4221986953601593,1667.7642122170787,3447.8931972909722,5840.2413692395485,1.501758457589819,1.4048773490164437,0.0,Ni,0.09231521187754255,ternary
Ir0.393Pt0.550Tm0.056,Ir,Pt,0.3930802143147051,0.5504978249980074,2248.5333407046755,3674.5510846606594,21434.865907546813,2.1904389633469172,1.3725687842749152,0.0,Tm,0.05642196068728755,ternary
Y0.183Mo0.313Hg0.504,Y,Mo,0.1829118036841957,0.3134357364955218,1239.467496093424,2684.4280653694063,4932.803917540993,1.907478510965611,1.5392017542804828,0.0,Hg,0.5036524598202825,ternary
Er0.547Hf0.417Sc0.050,Er,Hf,0.5474859158654578,0.4174964612381115,1956.4859295817519,4040.490739657108,8796.57478784955,1.289627935282713,1.685219867683624,0.0,Sc,0.05,ternary
Ir0.467Nd0.476Hf0.057,Ir,Nd,0.4669667184785343,0.47623112602681095,2131.5928975022293,3717.2665866076727,13660.745218506789,1.644073066466391,1.5994759941123364,0.0,Hf,0.05680215549465473,ternary
Yb0.418Fe0.488Co0.094,Yb,Fe,0.4180901243262428,0.48834555744206143,1342.3356812409397,2622.9969882440687,8172.711560014652,1.5294724251534275,1.5416533276026,0.0,Co,0.09356431823169575,ternary
Re0.434Zn0.538Ag0.050,Re,Zn,0.4335754161231082,0.5375192196521017,1938.3349398955731,3015.3574795656077,15618.206365442327,1.8072000030598734,1.3909777582965335,0.0,Ag,0.05,ternary
Pt0.103Er0.184Hf0.713,Pt,Er,0.10321015338236647,0.18419934591796014,2153.648813464194,3508.3657610813193,13942.322037466634,1.3900939895596416,1.5661978385071187,0.0,Hf,0.7125905006996733,ternary
Ba0.135Al0.448Co0.417,Ba,Al,0.13492074748033148,0.44815835363358114,1147.821440827546,3158.7197297362623,5188.602258354008,1.6254257045134048,1.4131207626209072,0.0,Co,0.4169208988860874,ternary
Y0.244Au0.315Tb0.440,Y,Au,0.2441701305398428,0.3154747961857701,1673.790184627741,3888.9314368469627,9494.318789635125,1.5835841221722902,1.636018588052684,0.0,Tb,0.44035507327438705,ternary
Nb0.167Os0.343Tm0.490,Nb,Os,0.16716603114463582,0.3432356297298682,2343.9243900378756,3712.7404672362013,15871.88236857316,1.6345819591439974,1.5453941572781686,0.0,Tm,0.489598339125496,ternary
Sc0.384Ni0.206Mg0.410,Sc,Ni,0.38354606708277184,0.2062866866053568,1336.5989075780567,2263.367586749229,3872.0475242615953,1.4529493153173527,1.5074116037174738,0.0,Mg,0.4101672463118714,ternary
Mo0.191Cr0.480Lu0.329,Mo,Cr,0.1913646996363201,0.4795823424752237,2104.207176329321,3615.460095848634,7290.733589124872,1.627351696241662,1.5247367702427757,0.0,Lu,0.32905295788845623,ternary
Pd0.413Au0.412Mg0.174,Pd,Au,0.4134186897910066,0.41221072788981883,1793.0097167292931,2479.1385826213796,12803.60113783233,2.184961829218473,1.3968265218374265,0.0,Mg,0.17437058231917457,ternary
Gd0.247Zr0.289Fe0.465,Gd,Zr,0.24656279268006628,0.28886426882699723,1840.848032420128,4380.384551179751,6495.031746206107,1.5302333061980598,1.5419547573960761,0.0,Fe,0.46457293849293646,ternary
Ag0.115Mn0.217W0.668,Ag,Mn,0.11483332583921549,0.21739006444028433,3522.563333708923,5033.078261269545,16337.344258732868,2.1345357176925073,1.3895778346818182,0.0,W,0.6677766097205002,ternary
Ba0.105Ho0.233Co0.662,Ba,Ho,0.10475328810906584,0.233040375082935,1514.2444578190589,3214.722548445483,7709.627278292448,1.624818000968117,1.5270187805204267,0.0,Co,0.6622063368079992,ternary
Al0.495Dy0.121Nd0.384,Al,Dy,0.4946035839156018,0.1209296721847424,1310.8904847094939,2727.8045035419304,4927.4764035849785,1.3821380582151124,1.5411448824321647,0.0,Nd,0.38446674389965585,ternary
Tc0.288Y0.360Al0.352,Tc,Y,0.28783290163794484,0.36003706077820374,1582.788372780342,3234.313515039066,6306.137784680642,1.5530570877715046,1.4768036735918066,0.0,Al,0.3521300375838514,ternary
Ag0.478Ba0.402Sr0.119,Ag,Ba,0.4784558189549668,0.40218577544932665,1178.2557285335793,2493.401945553099,5544.134106677359,1.3947555560489078,1.8689455387354121,0.0,Sr,0.11935840559570654,ternary
W0.452Os0.542Ho0.050,W,Os,0.4523260802853893,0.5415495190050196,3926.0187147711513,7062.946989667067,20425.335365415754,2.320398491284562,1.402154583091801,0.0,Ho,0.05,ternary
Rh0.299Os0.405Dy0.295,Rh,Os,0.29923567540360874,0.40540452918872805,2980.7601315625716,4059.0465100173947,13301.416611174634,1.9344862545327788,1.447873691703629,0.0,Dy,0.2953597954076632,ternary
Re0.102W0.535Co0.363,Re,W,0.10154233149036487,0.5352707553591887,2880.366086173548,5388.991318625209,14357.260352184889,2.1389608092022176,1.35,0.0,Co,0.3631869131504465,ternary
Pt0.113Yb0.161Cu0.726,Pt,Yb,0.11284021363373539,0.16144726972656429,1309.1945608996843,3201.2249086938327,9916.898074278888,1.813721465399568,1.4145789078906257,0.0,Cu,0.7257125166397003,ternary
Y0.476Ag0.224Er0.300,Y,Ag,0.4757198706829986,0.22426882001917767,1771.227333768706,3281.5346892709144,7545.227229811239,1.3852310883995727,1.7401456705312732,0.0,Er,0.3000113092978237,ternary
Mg0.429Eu0.338Ho0.233,Mg,Eu,0.4294380525866638,0.3375997137833908,1120.7123251108285,1934.0626775665908,4142.234035666303,1.2542270527934314,1.6764004582316732,0.0,Ho,0.2329622336299454,ternary
Au0.102Dy0.419Mo0.479,Au,Dy,0.10156455481865032,0.4190366288928208,2515.227635522016,3617.6673334134985,11653.681657107927,1.8047000996718354,1.5655545331859813,0.0,Mo,0.4793988162885289,ternary
Ta0.280Ti0.123Gd0.597,Ta,Ti,0.2801028060668501,0.12287714172004746,2057.1144559777267,4229.762511588695,9442.848214114105,1.3258090700048712,1.6528131611885835,0.0,Gd,0.5970200522131024,ternary
Lu0.322Ta0.403Ho0.274,Lu,Ta,0.3221530796347508,0.4033815081586545,2176.9975769468488,3563.924778117085,11002.428812447886,1.3517991303882269,1.6289855475524035,0.0,Ho,0.2744654122065947,ternary
Pt0.497Lu0.274Eu0.229,Pt,Lu,0.49698018909010744,0.27416697899966047,1735.7127647314871,3529.3516223390775,15832.367973636288,1.7559302927472922,1.5740932075549803,0.0,Eu,0.2288528319102321,ternary
Sr0.515Dy0.452Er0.050,Sr,Dy,0.5148088551715886,0.4519404810135179,1327.9530618723563,2090.3739758459187,4853.512763261031,1.102435799249501,1.9080135521168335,0.0,Er,0.05,ternary
Cd0.437Sm0.523Mo0.050,Cd,Sm,0.4371503533131468,0.5227790331816373,1160.8779911020392,2032.4985675992925,9170.054653672478,1.4584355659217336,1.7172242590214066,0.0,Mo,0.05,ternary
Pr0.116Tm0.349Sc0.535,Pr,Tm,0.11587287384219971,0.3489625282467185,1869.072711014786,3031.1491847694742,6573.5287344948965,1.294963360909155,1.6813125976975578,0.0,Sc,0.5351645979110818,ternary
Fe0.477Hf0.527Ho0.050,Fe,Hf,0.4768105279032771,0.5268297855284869,2345.8363889319403,4484.997494925432,10846.781788733288,1.6189419872500301,1.5716209066337425,0.0,Ho,0.05,ternary
Ca0.578Zr0.341Mg0.081,Ca,Zr,0.5775256109076687,0.34108427264780594,1248.0909815703778,2536.4188306764527,3254.4369345836776,1.1377887460715788,1.6903118969046909,0.0,Mg,0.08139011644452532,ternary