formula,element_1,element_2,composition_1,composition_2,melting_point,boiling_point,density,electronegativity,atomic_radius,electronegativity_difference,element_3,composition_3,alloy_type
Nb0.154La0.319Ag0.526,Nb,La,0.15434749644014703,0.3192860344658779,1164.0584162407615,3202.231898470256,8222.646819644624,1.614057917568073,1.6885979875970354,0.0,Ag,0.5263664690939751,ternary
Mg0.277Zr0.317Cu0.406,Mg,Zr,0.2768688885386701,0.31698007734794253,1512.338711123868,3203.072523363025,5179.070888289803,1.5559687116738572,1.454926348750389,0.0,Cu,0.4061510341133874,ternary
Re0.155Tm0.242Mo0.602,Re,Tm,0.155332821568724,0.24244988203144188,2228.06343825336,4539.174036104313,11874.43030786462,1.8989840737435197,1.50720168245256,0.0,Mo,0.6022172963998341,ternary
Cu0.439Pt0.529Au0.050,Cu,Pt,0.43851446485658657,0.5287835086489042,1667.561071596123,3109.09150855348,16784.167103943433,2.1658038829470163,1.3733522642324125,0.0,Au,0.05,ternary
Zr0.473Dy0.523Mo0.050,Zr,Dy,0.47266973245278116,0.5233700028840684,2288.086039790482,4054.6748599584744,7383.241697808859,1.3751621476807627,1.7210355903489305,0.0,Mo,0.05,ternary
Ag0.345Ni0.348Au0.308,Ag,Ni,0.34453391712204984,0.34778379797868464,1444.3246612100481,2512.216582626212,13988.858783186313,2.110730517828978,1.4361334792805125,0.0,Au,0.3076822848992655,ternary
Ho0.262Tm0.482Cu0.255,Ho,Tm,0.262443849262185,0.4821963547927792,1692.1674803249452,2201.662644738307,8807.5262426735,1.4107349903790296,1.6478560816219856,0.0,Cu,0.2553597959450358,ternary
Pt0.493Sc0.489Yb0.050,Pt,Sc,0.49264805856140276,0.48852779656615847,2036.9235188133111,3488.0524715760466,11840.753001147928,1.8426353768499737,1.5342193535637474,0.0,Yb,0.05,ternary
Ir0.511Cu0.468Ni0.050,Ir,Cu,0.5114392604905406,0.4678910976593553,1862.638735746321,4290.889996742408,15152.367500207827,2.1096594586319646,1.3895959835023595,0.0,Ni,0.05,ternary
Cu0.350Zn0.484Re0.166,Cu,Zn,0.3500004657121336,0.48369247572287044,1086.7404562104798,2567.807275567297,11059.492314394382,1.7790768810692823,1.3500000000000003,0.0,Re,0.16630705856499595,ternary
Rh0.515Cr0.315Ho0.170,Rh,Cr,0.5149178800811656,0.31483252561255737,2050.8707367964203,4084.370547334997,10591.635884662961,1.9060417600986235,1.4338414640031387,0.0,Ho,0.17024959430627706,ternary
Sm0.317Lu0.245Al0.438,Sm,Lu,0.3171642574675121,0.24473331452244282,1350.9169681497199,2745.302223403054,5882.957196480242,1.3872383997766642,1.5626652117417286,0.0,Al,0.43810242801004506,ternary
Ba0.224Fe0.176Hg0.600,Ba,Fe,0.22387364960317743,0.17624786246288035,665.6138351170397,1367.3543109485704,2288.9599885686816,1.7215381123217832,1.6278930859957772,0.0,Hg,0.5998784879339422,ternary
Sc0.241Nb0.158Rh0.602,Sc,Nb,0.24056941779973953,0.15750999549093395,2008.6576550343937,3502.832539314157,8487.886983434819,1.9515693386904045,1.4258933539990286,0.0,Rh,0.6019205867093266,ternary
Pd0.433Er0.315Rh0.252,Pd,Er,0.4331652239732795,0.31457946374420986,2316.3974559811636,3570.59269895755,11541.54808156006,1.9181841397881594,1.4974900466963479,0.0,Rh,0.25225531228251064,ternary
Sr0.451Tm0.351Co0.198,Sr,Tm,0.45057247702202463,0.3511669718142615,1307.4336621806933,2295.4656619187513,6150.212407860168,1.2397324041265323,1.7833388987900205,0.0,Co,0.19826055116371388,ternary
Nb0.414Mo0.174Nd0.411,Nb,Mo,0.414453954378058,0.1743630499742336,2224.6542817457384,3900.5426839261386,8270.831643572687,1.5084991299876251,1.6144731982590832,0.0,Nd,0.41118299564770844,ternary
Ni0.119Cu0.595Pt0.286,Ni,Cu,0.11918321577408028,0.595199397922223,1529.4591652615582,3190.3112920177277,13304.423942024217,2.0097264389531455,1.35,0.0,Pt,0.2856173863036967,ternary
Zn0.408Hg0.145Ti0.446,Zn,Hg,0.4082336790846418,0.14546771520506632,1001.1965472712196,2284.279984721748,5263.451696314371,1.651820853693641,1.3941350875662746,0.0,Ti,0.4462986057102919,ternary
Cr0.362Ir0.450Au0.187,Cr,Ir,0.3624855909736676,0.45007943076383305,2073.6485102793345,3460.2450860272243,16034.180498550812,2.067985673483469,1.3681242795486834,0.0,Au,0.18743497826249933,ternary
Ru0.340W0.355Hg0.305,Ru,W,0.33959761880841,0.3549318463618786,2332.358607149496,3705.47362495108,11511.621347535447,2.195694988451958,1.3788406992840363,0.0,Hg,0.3054705348297114,ternary
Tb0.155Cr0.282Hf0.563,Tb,Cr,0.15502747472094777,0.2817880730351654,2679.8161374873785,3909.617753139947,8932.794623227705,1.3704382113484699,1.5387372839889149,0.0,Hf,0.5631844522438868,ternary
Re0.223Tm0.548Au0.229,Re,Tm,0.22348431840479702,0.5475531170053646,2246.035236993249,3791.5439124001614,14778.891243559774,1.6906265152840096,1.5690212468021458,0.0,Au,0.22896256458983844,ternary
Nb0.126V0.472Al0.402,Nb,V,0.12606531851154099,0.4723773521246001,1562.0690997222662,3448.7036251342247,4485.865209180996,1.6181868938573765,1.3224507989147682,0.0,Al,0.4015573293638589,ternary
Tc0.240Cd0.403Sr0.357,Tc,Cd,0.24007967676401873,0.4032609116314415,1274.494392893093,1815.4888999104578,6971.430737427353,1.4764887675330844,1.662480799869239,0.0,Sr,0.35665941160453973,ternary
Hg0.574Nb0.282Pd0.144,Hg,Nb,0.574164092880809,0.28179062133387534,1054.9971577650551,2269.956686379095,3994.8874523737554,1.9160928086235132,1.4715059403547746,0.0,Pd,0.1440452857853156,ternary
Hf0.434Ni0.441Co0.124,Hf,Ni,0.4344737701626926,0.44148075637134987,2107.5895328213687,3930.7631898449677,9752.03940178552,1.6412496359967788,1.4368947540325387,0.0,Co,0.12404547346595751,ternary
Cu0.471W0.281Os0.249,Cu,W,0.4706460513548376,0.2806924817820341,2654.8729722208254,4434.3884457576605,13718.81906370066,2.1037169816786743,1.3375669266568437,0.0,Os,0.2486614668631283,ternary
Nd0.286Y0.425Sm0.289,Nd,Y,0.28579614251200935,0.4251241716591527,1865.8699405947616,3246.009739058807,5878.672808262071,1.1826823243075972,1.8287437914170426,0.0,Sm,0.2890796858288379,ternary
Tc0.144Nd0.153Ir0.703,Tc,Nd,0.1436155866354473,0.15318275887699948,2823.817094107407,5298.222456825783,18350.08810815495,1.9945415995997466,1.4265913794385,0.0,Ir,0.7032016544875532,ternary
Gd0.160Lu0.393Sm0.447,Gd,Lu,0.16017717361837228,0.3932807280433557,1667.5300241093717,2646.492160091807,8295.33414536548,1.2141333880128866,1.802663068514746,0.0,Sm,0.4465420983382721,ternary
Tb0.323Mo0.149Tm0.528,Tb,Mo,0.3228849005904072,0.14931870503306235,1879.761308051746,3093.9576240845554,9411.468282583885,1.3374472864915257,1.7052043884900812,0.0,Tm,0.5277963943765305,ternary
La0.251Eu0.337W0.412,La,Eu,0.2507382084628591,0.3370992600532048,2315.2881360964993,4041.181484278751,9881.686723364437,1.65303471567508,1.6689925551043179,0.0,W,0.4121625314839361,ternary
Mo0.177La0.164Yb0.659,Mo,La,0.1768361763798114,0.16391597238073766,1296.5823148321765,2316.689669119617,6954.574617035291,1.2874463469626,1.7297323415622041,0.0,Yb,0.659247851239451,ternary
Au0.226Ce0.539Tm0.235,Au,Ce,0.22626275379801783,0.538537671265584,1442.5006978516828,2816.6648868053535,9798.259538632088,1.4718690551349172,1.7133486656073513,0.0,Tm,0.2351995749363981,ternary
Ce0.324Re0.459Os0.217,Ce,Re,0.32424111004868383,0.4586629372739379,2903.121263171582,4866.757929973429,17488.22834810734,1.7122207199652402,1.501265757390473,0.0,Os,0.21709595267737825,ternary
Hg0.310Mn0.566Sr0.125,Hg,Mn,0.30950208054394557,0.5656661635355809,1048.011648445612,1766.023764443308,4449.7911613656115,1.6143768826924914,1.5058492616066788,0.0,Sr,0.12483175592047357,ternary
Sc0.400Ti0.448Zr0.152,Sc,Ti,0.39957683114017783,0.4483531138579806,2046.6800841331028,2999.827506006392,4050.870891565408,1.4361414588443813,1.5027258744783119,0.0,Zr,0.15207005500184156,ternary
Cu0.578Cd0.130V0.292,Cu,Cd,0.5779014608493998,0.13039669541414964,1543.3807865482197,3221.583243990261,9269.193530268072,1.7938571961541867,1.37607933908283,0.0,V,0.2917018437364506,ternary
Er0.507Mo0.348Lu0.145,Er,Mo,0.5072667524125197,0.3475129503186579,2114.0142239697484,4401.22535652817,8967.735474269386,1.56406852321123,1.6457461149044026,0.0,Lu,0.14522029726882235,ternary
La0.183Sc0.475Mn0.342,La,Sc,0.18275911002511133,0.47536389570414406,1812.1901851530108,3198.792553965314,4630.519559227715,1.3774392603049126,1.59559028965464,0.0,Mn,0.3418769942707446,ternary
Ir0.404Ce0.203Pt0.393,Ir,Ce,0.4036091896574727,0.20346229815507808,2190.150569623445,4225.007710379706,19965.016317757723,2.0116949989675117,1.4517311490775393,0.0,Pt,0.3929285121874492,ternary
Al0.209Zr0.448Pr0.343,Al,Zr,0.2089038610164551,0.4483608737918039,1528.241115524666,3783.712739139201,6547.552790002562,1.3199460280462594,1.590149421252586,0.0,Pr,0.342735265191741,ternary
Sc0.460Ca0.229Tm0.310,Sc,Ca,0.46028958307606427,0.22941730880517572,1638.5413652649547,2729.4995312449378,4517.650271296134,1.243277526937073,1.6924274279788492,0.0,Tm,0.31029310811876,ternary
Ru0.234Cd0.160Tm0.606,Ru,Cd,0.23425732609685854,0.15955169786180964,2108.8343798084957,2376.6671452869036,9318.457945597236,1.5427472068512118,1.6126738636840516,0.0,Tm,0.6061909760413318,ternary
Ru0.219V0.120La0.661,Ru,V,0.2191083874249581,0.11954533770537132,1868.3191655219466,3711.624596979196,8707.101599209787,1.4043782551513009,1.7358523455505543,0.0,La,0.6613462748696706,ternary
Zn0.235Ag0.495Cu0.269,Zn,Ag,0.23521742773571178,0.4953106591534613,1242.1983848961283,2309.6681225490493,7596.404637905269,1.856054962840676,1.4738276647883652,0.0,Cu,0.26947191311082697,ternary
Tb0.367Rh0.101Tc0.532,Tb,Rh,0.3672974620617361,0.10069998073818345,2112.2711886652214,4142.121014120349,11603.366832229336,1.6444280230311208,1.4969189848246947,0.0,Tc,0.5320025572000805,ternary
Re0.586Gd0.262Sm0.152,Re,Gd,0.5861093139987817,0.2622809361042311,3067.441704523286,4358.152770684495,16749.48539477242,1.6057282273022375,1.5438312961953975,0.0,Sm,0.15160974989698717,ternary