formula,element_1,element_2,composition_1,composition_2,melting_point,boiling_point,density,electronegativity,atomic_radius,electronegativity_difference,element_3,composition_3,alloy_type
Tm0.319Mo0.681,Tm,Mo,0.31918199877948716,0.6808180012205128,2601.6440469891236,3640.363714390154,10179.72772237554,1.869544381110667,1.5457545996338462,0.9100000000000001,,,binary
Ca0.418Sc0.582,Ca,Sc,0.41755382201319813,0.5824461779868019,1744.6950910543671,2654.9696720781035,2615.3221564992136,1.2096806240752487,1.6835107644026397,0.3600000000000001,,,binary
Ni0.124Ho0.876,Ni,Ho,0.12445055390559485,0.8755494460944051,1692.1731188389467,3243.2652807165814,9055.07170822261,1.3146263766558046,1.700219778437762,0.6799999999999999,,,binary
Os0.575Ba0.425,Os,Ba,0.5752348747617211,0.4247651252382789,2105.263036687826,4076.2161312633875,13059.32483262953,1.643557685937855,1.6610503564525372,1.31,,,binary
Nb0.570Sr0.430,Nb,Sr,0.5695041987379414,0.43049580126205855,1890.4319534378944,3637.257133023868,6191.583610276374,1.3201777291796621,1.686772690694132,0.6500000000000001,,,binary
Re0.770Zr0.230,Re,Zr,0.7701230162053818,0.22987698379461818,2778.064726506036,6185.960794129038,18696.291634088724,1.7689701192370677,1.3959753967589237,0.5699999999999998,,,binary
Pd0.765Lu0.235,Pd,Lu,0.7646961610844764,0.23530383891552364,1720.4271491665097,2825.852942481932,11342.788126991547,1.981167429808563,1.4823563436204332,0.9300000000000002,,,binary
Fe0.122Cd0.878,Fe,Cd,0.12196039191821617,0.8780396080817838,709.5023397244181,1310.041106459207,8244.69940595569,1.7070744548685504,1.5317059412122676,0.14000000000000012,,,binary
Cr0.783Zr0.217,Cr,Zr,0.7830570612684372,0.21694293873156278,1733.3579902154304,3192.074990773416,6789.501236253787,1.5884088302185841,1.4325414408097343,0.32999999999999985,,,binary
Tc0.618Ru0.382,Tc,Ru,0.6179039134091856,0.3820960865908144,2655.8961496875763,4180.283900381833,13818.702576744325,2.0146288259772445,1.3308951956704593,0.30000000000000027,,,binary
Ho0.315Tc0.685,Ho,Tc,0.3152668634151657,0.6847331365848344,1787.9919229132006,4582.05520236978,10408.366169476712,1.6887712015118392,1.4761067453660663,0.6699999999999999,,,binary
Au0.116Sc0.884,Au,Sc,0.11604188599961951,0.8839581140003805,1909.8603292890064,3130.8035663576757,5434.124014818573,1.496929425479551,1.5709895285000952,1.18,,,binary
Ho0.479Al0.521,Ho,Al,0.47927776522347587,0.5207222347765241,1266.1249942921968,2571.016466821891,6419.691561919248,1.4278744492150792,1.489638882611738,0.3800000000000001,,,binary
Cu0.239Tb0.761,Cu,Tb,0.23856052518571583,0.7614394748142842,1546.543505462944,3506.726584472727,9421.722397171314,1.2908484201485728,1.6545757899257136,0.7999999999999998,,,binary
Al0.302Ru0.698,Al,Ru,0.30191235308852116,0.6980876469114788,1884.850394729854,4164.643470054353,8893.027060925751,2.0218717116777727,1.284904382345574,0.5900000000000001,,,binary
Hf0.874Tm0.126,Hf,Tm,0.8736195546947013,0.12638044530529868,2387.0778223005923,4573.532480056731,10884.704030276256,1.2936809777347351,1.5752760890610598,0.050000000000000044,,,binary
Tb0.439Ag0.561,Tb,Ag,0.43904544052769523,0.5609545594723048,1298.2886930147201,3296.2386593836277,10334.182701989015,1.565592284362013,1.6658568160791543,0.8299999999999998,,,binary
Ir0.467Re0.533,Ir,Re,0.4671984151124877,0.5328015848875123,3103.0571993315616,5452.7344596729445,21140.628119721914,2.0401595245337463,1.35,0.30000000000000027,,,binary
Tc0.342Ca0.658,Tc,Ca,0.3417160730194816,0.6582839269805184,1776.5746582141505,2653.070697262457,5064.83849926326,1.3075444657175335,1.6462277671412333,0.8999999999999999,,,binary
Y0.418Eu0.582,Y,Eu,0.4177220319776962,0.5822779680223038,1550.8646780619104,2356.9895005735198,5688.679586457161,1.2083544406395539,1.8291138984011153,0.020000000000000018,,,binary
Co0.509Al0.491,Co,Al,0.5092109739746414,0.49078902602535857,1150.5206145850782,3488.6112919863604,5638.8279227856765,1.747486962973153,1.300921097397464,0.2699999999999998,,,binary
Dy0.549Os0.451,Dy,Os,0.5491656938036806,0.45083430619631937,2354.492000789948,3197.1930818099936,14212.122944106237,1.661817620072393,1.5471245622116563,0.9800000000000002,,,binary
Sm0.339Cd0.661,Sm,Cd,0.338780741002638,0.661219258997362,760.3349622309186,1306.4546478796235,8097.860818414883,1.5138340146786282,1.6516342223007914,0.52,,,binary
Co0.151Sr0.849,Co,Sr,0.15106964311768795,0.8489303568823121,1269.4250977220056,1927.6064694434783,3687.268959787441,1.0904947680994497,1.901804731973503,0.9299999999999999,,,binary
Ag0.360Gd0.640,Ag,Gd,0.3601096562236047,0.6398903437763953,1299.107099931176,2855.4189123654483,10422.1959693693,1.4628800490432314,1.727978068755279,0.73,,,binary
Ag0.625Pd0.375,Ag,Pd,0.6248956841891633,0.3751043158108367,1350.262800171825,3188.5074604850115,10796.086850900498,2.031278165268926,1.5249791368378327,0.27000000000000024,,,binary
Tb0.251Hf0.749,Tb,Hf,0.25068806499200635,0.7493119350079936,2286.6696227380094,5016.873935955986,13564.31023058293,1.2498623870015988,1.6001376129984015,0.19999999999999996,,,binary
Y0.820Rh0.180,Y,Rh,0.8197496357963959,0.18025036420360407,1857.1396185365002,3531.080646563666,5876.9882113658405,1.4110653860558202,1.718887336108378,1.0599999999999998,,,binary
Sm0.628Pt0.372,Sm,Pt,0.6284242589449032,0.37157574105509683,1657.9658032930097,3079.3267704198192,12462.605232327054,1.5824490725711573,1.6642121294724515,1.1099999999999999,,,binary
Ho0.677Cu0.323,Ho,Cu,0.6770265580740885,0.3229734419259115,1712.282356390626,3561.169906661535,9172.272895201524,1.4463922060903607,1.6208106232296353,0.6699999999999999,,,binary
Tb0.898Ba0.102,Tb,Ba,0.8979752796626367,0.10202472033736332,1613.5947141655222,2853.247355804155,5702.75782007913,1.0785748087291538,1.7908098881349452,0.21000000000000008,,,binary
Pd0.424Au0.576,Pd,Au,0.4236791157023604,0.5763208842976396,1605.2511020064621,3144.233290415286,15382.069824306296,2.3959491006611975,1.371183955785118,0.33999999999999986,,,binary
Lu0.566V0.434,Lu,V,0.566418961930686,0.43358103806931403,2086.467696159049,3654.9564397546783,9150.71771204363,1.426089173704953,1.5765675847722744,0.3599999999999999,,,binary
Pr0.375Mo0.625,Pr,Mo,0.37453363970845854,0.6254663602915415,2283.2808844459373,4077.6033936501135,9799.598839307997,1.7742303511002877,1.5998134558833834,1.0300000000000002,,,binary
Tm0.649Ru0.351,Tm,Ru,0.649054488746137,0.350945511253863,2049.4093061593076,3152.7820803808168,9894.953830054472,1.58339823569117,1.5920745199357615,0.9500000000000002,,,binary
Gd0.825Sr0.175,Gd,Sr,0.8252212044040438,0.17477879559595622,1394.5720968858511,3223.417695790386,6988.6950293048185,1.156305301101011,1.8349557591191912,0.25,,,binary
Dy0.506Re0.494,Dy,Re,0.5058518844854523,0.49414811551454774,2681.881530182781,4220.269032832956,12010.7824876051,1.5560207185498924,1.552340753794181,0.6799999999999999,,,binary
Zr0.801Dy0.199,Zr,Dy,0.8011958274736884,0.19880417252631155,1950.6959172516401,4658.399103715189,6710.878547264428,1.308131541022106,1.5897608345052623,0.1100000000000001,,,binary
Nb0.178Cd0.822,Nb,Cd,0.17808245105016748,0.8219175489498325,954.0271706820624,1920.6755931773362,8020.910881836157,1.6739725794054847,1.5321917548949833,0.08999999999999986,,,binary
Cu0.307Lu0.693,Cu,Lu,0.30692148044816636,0.6930785195518336,1480.7747527702409,3472.5221645595157,9095.536102925824,1.4633605326823447,1.6272314078207335,0.6299999999999999,,,binary
Ce0.858Nb0.142,Ce,Nb,0.8575387041551611,0.1424612958448389,1181.2716080474922,3762.9935659559246,7298.908686887962,1.1883814220055229,1.7930154816620645,0.48,,,binary
W0.171Tb0.829,W,Tb,0.17143985761555136,0.8285601423844486,1981.3526431839643,4021.369332716786,11943.536010271306,1.3160142205955947,1.6814240569537795,1.2599999999999998,,,binary
Re0.695Ru0.305,Re,Ru,0.6953679434742465,0.30463205652575354,3089.7509908883603,5579.603659538092,17448.747370356858,1.991389616957726,1.3347683971737125,0.30000000000000027,,,binary
Hf0.730Au0.270,Hf,Au,0.7304723494460794,0.2695276505539206,2005.5727647948256,4147.475465523034,14209.948803016705,1.6342142866868616,1.496094469889216,1.24,,,binary
W0.308Os0.692,W,Os,0.30844738832456287,0.6915526116754371,3549.141940256096,6733.317434753757,20028.852106366125,2.24935158213193,1.3154223694162281,0.1599999999999997,,,binary
Cd0.781Ca0.219,Cd,Ca,0.7809711105691282,0.21902888943087184,678.7768835393605,1189.4876131183344,7375.710007762394,1.5388700662926984,1.6047572223577182,0.69,,,binary
Sr0.793Cr0.207,Sr,Cr,0.7931146957540317,0.2068853042459683,1317.6145303136525,2168.4366558391034,2698.516434957118,1.0968885660146375,1.875868817452419,0.71,,,binary
Nd0.157Eu0.843,Nd,Eu,0.15697258992326069,0.8430274100767393,860.338265309243,1945.4156940945234,6090.475054016044,1.1905816446046043,1.85,0.06000000000000005,,,binary
Mo0.196Sc0.804,Mo,Sc,0.19585274975000466,0.8041472502499953,1708.726056011715,2417.4696100193246,4665.849880489346,1.516682199800004,1.5706220875374992,0.8,,,binary
Ho0.524Ir0.476,Ho,Ir,0.523870803703998,0.47612919629600203,2266.4192428359083,3391.2704181473077,13874.850127215386,1.691845320407122,1.559548321481599,0.9700000000000002,,,binary
Au0.797Cr0.203,Au,Cr,0.7966793170824037,0.2033206829175963,1362.360666657375,3125.5564033474875,15773.680917893931,2.361077799032515,1.3601660341458799,0.8800000000000001,,,binary
Zn0.894Cu0.106,Zn,Cu,0.8938782823103463,0.10612171768965373,800.9704402660694,996.3264707747027,6700.918780457871,1.6765304294224135,1.35,0.25,,,binary
W0.890Au0.110,W,Au,0.8897532795036053,0.11024672049639472,3048.2666769204266,5388.676322115335,18219.473810927084,2.379844409689351,1.35,0.18000000000000016,,,binary
Ca0.353Zn0.647,Ca,Zn,0.3531067661189672,0.6468932338810328,908.9668619432224,1126.4582534282433,5189.6346799110715,1.4204806020226712,1.5088980447535354,0.6499999999999999,,,binary
Tm0.723Nb0.277,Tm,Nb,0.7231529419470516,0.2768470580529484,2191.9332976482765,3552.8570675023116,8674.050297177728,1.346896470318532,1.6669458825841155,0.3500000000000001,,,binary
Ba0.605W0.395,Ba,W,0.6048262178101561,0.3951737821898439,2131.993828808384,2949.9663154001837,7402.6534936912885,1.4709054598190705,1.8338609742481249,1.4699999999999998,,,binary
Nb0.608Ta0.392,Nb,Ta,0.6075991753221368,0.3924008246778632,3212.109867399081,5294.2288044205125,13124.243114461528,1.5607599175322138,1.45,0.10000000000000009,,,binary
Al0.319Mg0.681,Al,Mg,0.3188222897611997,0.6811777102388004,799.1145313097361,1913.146301899877,2426.8255427680115,1.40564668692836,1.4202944275597003,0.30000000000000004,,,binary
Zr0.712Pr0.288,Zr,Pr,0.7115869889166063,0.2884130110833937,1940.8369159004124,4479.8350715440965,6553.807975791425,1.2723173977833213,1.636523903325018,0.20000000000000018,,,binary
Ba0.204Fe0.796,Ba,Fe,0.20352476605462871,0.7964752339453713,1387.3835299382492,3329.802551828592,6559.083896208413,1.6386867199086492,1.5526435745409715,0.9400000000000001,,,binary
Hg0.444Gd0.556,Hg,Gd,0.4435277784072964,0.5564722215927036,1035.6747156156835,1889.7292208600372,3878.1155227177455,1.554822222725837,1.6669416664778112,0.8,,,binary
Hg0.407Sr0.593,Hg,Sr,0.40665313604276854,0.5933468639572315,821.3836657829363,1195.1311385444462,1787.286217551753,1.376985792844907,1.7966734319786157,1.05,,,binary
V0.260La0.740,V,La,0.2595314009824936,0.7404685990175064,1438.5931414050087,3040.2387762697153,6684.088145965599,1.2375516425207218,1.7942811594105037,0.5299999999999998,,,binary
Os0.814Al0.186,Os,Al,0.813605113757927,0.186394886242073,2694.8407983974525,5157.1077434790795,18946.52352544514,2.090027017117177,1.2906802556878962,0.5900000000000001,,,binary
Y0.114Mo0.886,Y,Mo,0.11433290050475682,0.8856670994952431,2343.044050689651,4841.278225485073,11727.832697593014,2.0525270735255288,1.4900165151766647,0.9400000000000002,,,binary
Al0.687Gd0.313,Al,Gd,0.68688259273066,0.31311740726934,1193.5513804964048,3003.513350986202,4793.988568341361,1.4816218630195706,1.4222145739981369,0.41000000000000014,,,binary
Ru0.802Er0.198,Ru,Er,0.8015881082078801,0.19841189179211993,2498.8348661236823,4255.98314732436,10435.668575251117,2.009524583879565,1.3892853513064543,0.9600000000000002,,,binary
Hf0.182Cu0.818,Hf,Cu,0.182166578671637,0.817833421328363,1603.5816928511197,3868.266324842149,8907.08300728291,1.7907000527970176,1.3864333157343276,0.5999999999999999,,,binary
Sc0.345Nd0.655,Sc,Nd,0.34489207367313024,0.6551079263268698,1685.4663814313044,3249.800672546669,4997.362921848226,1.2158762562080887,1.7637769815817177,0.2200000000000002,,,binary
Mn0.339V0.661,Mn,V,0.338561802795311,0.661438197204689,2153.5507737335633,3131.8248680766205,7069.479059275412,1.602915055776375,1.3669280901397656,0.07999999999999985,,,binary
Cd0.682Ca0.318,Cd,Ca,0.6822655291574502,0.3177344708425498,737.5251532599053,1260.2307636953096,6709.67185961636,1.4707632151186405,1.6294336177106374,0.69,,,binary
Sm0.370Y0.630,Sm,Y,0.3702681209663464,0.6297318790336536,1678.340623968075,2434.4621313438647,4917.714425769024,1.2014865939516826,1.8185134060483175,0.050000000000000044,,,binary
Ho0.374Cu0.626,Ho,Cu,0.374186271406048,0.625813728593952,1637.8268435388445,3081.283217909063,8408.50805729467,1.6492951981579478,1.4996745085624195,0.6699999999999999,,,binary
Ba0.700Re0.300,Ba,Re,0.7000924658085468,0.2999075341914532,1501.4241103079464,2908.412252652352,6990.006120121373,1.1929066095333676,1.9100739726468374,1.0099999999999998,,,binary
Zr0.115Pt0.885,Zr,Pt,0.11529978649865553,0.8847002135013444,2030.6083871872509,3916.065770837114,17532.989682151077,2.1704652028262768,1.373059957299731,0.9499999999999997,,,binary
Ru0.888Yb0.112,Ru,Yb,0.8879036195946084,0.1120963804053916,2421.127783443277,4240.799244256247,14173.035687022217,2.0766939815540693,1.3504433711824262,1.1,,,binary
Tc0.118Yb0.882,Tc,Yb,0.11753061765249272,0.8824693823475073,1064.1282796751154,2041.833584984242,7845.137699773512,1.1940244941219942,1.702987752939003,0.7999999999999998,,,binary
Sc0.199Zr0.801,Sc,Zr,0.19852958540076876,0.8014704145992313,1904.7275061428652,4457.305854155553,5545.054701695047,1.3359558875620232,1.5599264792700385,0.030000000000000027,,,binary
Tm0.734Tb0.266,Tm,Tb,0.733701724036714,0.26629827596328604,1800.4932321901488,2950.7821278580996,9574.252706422118,1.2100552586055071,1.75,0.1499999999999999,,,binary
Ir0.305Gd0.695,Ir,Gd,0.3046313391402343,0.6953686608597657,2035.03884347641,3714.8158481109394,10554.666659475579,1.5046313391402344,1.6629158973868947,1.0000000000000002,,,binary
La0.139Eu0.861,La,Eu,0.13886956926538982,0.8611304307346102,1088.870954200885,2319.570173323762,4549.284169233632,1.186113043073461,1.863886956926539,0.09999999999999987,,,binary
Cr0.186Dy0.814,Cr,Dy,0.1864907601688362,0.8135092398311639,1586.152145314867,2895.4999729156316,7471.793285506347,1.302055934474288,1.6847282339409075,0.43999999999999995,,,binary
Ti0.652Cr0.348,Ti,Cr,0.6517997987019408,0.3482002012980592,1863.7956789359005,3203.7934029690873,4683.126042398537,1.581784024155767,1.4,0.11999999999999988,,,binary
Au0.404Mg0.596,Au,Mg,0.4042030103420917,0.5957969896579083,984.2480338678608,2222.9120098793996,7681.341151292034,1.807169702720773,1.4393695484486861,1.23,,,binary
Ce0.480Pd0.520,Ce,Pd,0.47951707066218974,0.5204829293378103,1229.7295952888535,3210.498516690306,10158.07056225499,1.6821215636848352,1.6157826817979855,1.08,,,binary
Zn0.656Tc0.344,Zn,Tc,0.6561536233767272,0.3438463766232728,1264.647265819195,2226.1733555471615,8677.492522247152,1.735961594155818,1.35,0.25,,,binary
Gd0.341Al0.659,Gd,Al,0.34089316380543383,0.6591068361945662,953.8430385790326,3191.642435062458,4644.495272573035,1.4702338028397723,1.4374912400929887,0.41000000000000014,,,binary
Dy0.630Co0.370,Dy,Co,0.6299863727111175,0.37001362728888254,1642.4646180773543,3272.286875160169,7701.45294835474,1.4642089940106624,1.601994549084447,0.6599999999999999,,,binary
Ag0.585Eu0.415,Ag,Eu,0.5845074695392033,0.4154925304607967,1311.3707725430438,2204.7053245121338,8030.640005166426,1.6266904527636183,1.7038731326151992,0.73,,,binary
Cu0.765Au0.235,Cu,Au,0.7645221763767118,0.23547782362328817,1350.2680162077625,3149.135684625838,12751.020996772322,2.0507058071189044,1.35,0.6400000000000001,,,binary
Co0.675Sc0.325,Co,Sc,0.6750129796129343,0.32498702038706573,1590.982962189801,2926.8738483940683,7700.803027294594,1.711006749398726,1.4312467550967667,0.5199999999999998,,,binary
Ni0.191Cd0.809,Ni,Cd,0.19121004214739834,0.8087899578526017,762.7116355666674,1580.944372153149,10177.728006205762,1.7320662092724275,1.5117579915705204,0.21999999999999997,,,binary
Co0.259Ba0.741,Co,Ba,0.25891732936502576,0.7410826706349742,1150.6793720569954,2581.338789245985,4339.613226279071,1.1463281560713754,1.9428661365079793,0.9899999999999999,,,binary
Mo0.765Pd0.235,Mo,Pd,0.7651990564056999,0.23480094359430015,2844.889730198792,4608.582820494402,11194.900870987363,2.1693920377437723,1.4382599528202848,0.040000000000000036,,,binary
Mo0.663Re0.337,Mo,Re,0.6627494001970067,0.3372505998029933,2886.6568039205217,4365.213378388944,14601.696057626481,2.072314844051222,1.4162749400197008,0.26000000000000023,,,binary
Cd0.132Zr0.868,Cd,Zr,0.13152456610285493,0.8684754338971451,1528.8030401581138,4069.6055140918866,7431.6129280998075,1.3773488437970278,1.5500000000000003,0.3599999999999999,,,binary
Ba0.651Tc0.349,Ba,Tc,0.6505631323642989,0.34943686763570114,1528.473522859726,3560.4881756008613,6948.024419044483,1.242931236312058,1.8704505058914391,1.0099999999999998,,,binary
Sr0.288W0.712,Sr,W,0.287604212777245,0.712395787222755,2742.414312523113,4640.467781447981,14401.472491870612,1.9544780599840843,1.5369427383052092,1.41,,,binary
Al0.171Dy0.829,Al,Dy,0.17120227162170432,0.8287977283782957,1306.6080984506655,2565.481791148119,7125.960529087326,1.2867688859324646,1.6643988641891476,0.3900000000000001,,,binary
Ni0.635Pr0.365,Ni,Pr,0.6352175444013121,0.36478245559868794,1225.07865098413,3339.3075491014883,7879.406567956083,1.6254696846330232,1.5323912277993441,0.78,,,binary
Zn0.724Fe0.276,Zn,Fe,0.7236209780675491,0.2763790219324509,834.1763369315083,1789.5710248310604,7868.517693948788,1.6997482239478412,1.3638189510966225,0.18000000000000016,,,binary
Mn0.679Yb0.321,Mn,Yb,0.6788609987574248,0.3211390012425752,1414.8890926068593,1989.579387286875,7605.688023468747,1.4054874494408414,1.5123986504349012,0.44999999999999996,,,binary
Pd0.285Tb0.715,Pd,Tb,0.2849282291933968,0.7150717708066032,1800.3807280696738,3532.2690348858655,8535.741175946765,1.4134210521127364,1.6502751197823111,1.1,,,binary
Cd0.471Pd0.529,Cd,Pd,0.47142188578891875,0.5285781142110813,1280.8709305586444,2463.8538442878053,9810.43720789134,1.9595748382476514,1.4707132828683378,0.5100000000000002,,,binary
Co0.799Nb0.201,Co,Nb,0.7993123593297273,0.20068764067027267,2377.336133027574,3377.2804414872826,8862.400698778934,1.8238074606123238,1.3700687640670275,0.2799999999999998,,,binary
Cd0.741Os0.259,Cd,Os,0.7412768821523579,0.2587231178476421,1208.6781361446801,2186.0211834228903,10125.50173351622,1.8219487901022975,1.4853192205380894,0.5100000000000002,,,binary
Ta0.691Hg0.309,Ta,Hg,0.690832156633741,0.309167843366259,2217.219803942034,3700.2417532536715,11658.026385730003,1.6545839216831295,1.4654583921683129,0.5,,,binary
Co0.108V0.892,Co,V,0.10773786218165587,0.8922621378183442,2350.930354445193,3862.67533538428,4890.215380890025,1.656934465545414,1.35,0.25,,,binary
Cu0.618Dy0.382,Cu,Dy,0.6177589009434716,0.38224109905652837,1783.3577205036104,3152.819532693166,8097.2680858804015,1.6400760526415605,1.5028964396226114,0.6799999999999999,,,binary
W0.816Re0.184,W,Re,0.8156220939023168,0.18437790609768323,3708.8618665941435,5938.376113297824,18270.902579550704,2.2751861631950656,1.35,0.45999999999999996,,,binary
Eu0.803Ag0.197,Eu,Ag,0.8027804299179789,0.19721957008202107,1148.0896740154785,1808.2817708444506,6024.730583286163,1.3439702861598752,1.8006951074794948,0.73,,,binary
Fe0.752Os0.248,Fe,Os,0.7519714316291971,0.2480285683708029,2032.0701419132638,3142.0759010981787,11697.083106017019,1.921770570297197,1.3751971431629195,0.3700000000000001,,,binary