formula,element_1,element_2,composition_1,composition_2,melting_point,boiling_point,density,electronegativity,atomic_radius,electronegativity_difference,element_3,composition_3,alloy_type
Ce0.785Hg0.215,Ce,Hg,0.7850469909959041,0.21495300900409586,896.8943567351665,2733.075278045302,5254.473469576015,1.3091586479236046,1.7747664468485667,0.8799999999999999,,,binary
Mo0.740Zn0.260,Mo,Zn,0.7400299665877099,0.2599700334122901,1967.3961087355017,4395.203298262317,9269.419578773202,2.027415282959732,1.424002996658771,0.5100000000000002,,,binary
Lu0.478Zn0.522,Lu,Zn,0.47838961962263793,0.5216103803773621,1425.6305873447861,2248.6054821506173,7990.644263703561,1.4682119445433974,1.5413558478490552,0.3799999999999999,,,binary
Al0.437Nb0.563,Al,Nb,0.43721653520821224,0.5627834647917878,1806.3246910706655,4398.534875621494,5577.6291806193485,1.6043721653520824,1.3625566929583575,0.010000000000000009,,,binary
Cu0.514Gd0.486,Cu,Gd,0.5136055799364005,0.48639442006359945,1562.9389262420045,3228.7120968233985,6759.740660077945,1.5595239059554804,1.56887748902862,0.7,,,binary
Yb0.728Ta0.272,Yb,Ta,0.7282663493551027,0.2717336506448973,1596.3627488908153,2317.3619019756,9340.635498919852,1.208693460257959,1.6684799048065309,0.3999999999999999,,,binary
Hf0.550Pd0.450,Hf,Pd,0.549710761657369,0.450289238342631,1938.750236505855,4520.650222083229,12614.533828872098,1.705260314508368,1.4824566142486053,0.9000000000000001,,,binary
Pr0.419Cr0.581,Pr,Cr,0.4187215214906621,0.5812784785093379,1741.514863624893,3413.283245091825,7598.688361284252,1.438077593609949,1.588424684670798,0.53,,,binary
Er0.148Zr0.852,Er,Zr,0.14802910217921328,0.8519708978207867,2075.5624898388423,4110.403242844813,5667.088661413098,1.316677380803871,1.5796058204358427,0.09000000000000008,,,binary
Pd0.771Sr0.229,Pd,Sr,0.7711773671499622,0.2288226328500378,1536.815342362768,2696.8303344081737,9979.373995225695,1.913971708937453,1.5372935797100227,1.2500000000000002,,,binary
Co0.696Mg0.304,Co,Mg,0.695674576369861,0.30432542363013904,1458.6986724813617,2822.6341437564765,6308.470731703444,1.7065345085308208,1.3956488135445209,0.5699999999999998,,,binary
Pd0.388Os0.612,Pd,Os,0.38824526405543114,0.6117547359445689,2716.608164812555,5021.03489433966,19132.011982144002,2.2,1.338824526405543,0.0,,,binary
Ce0.375Pd0.625,Ce,Pd,0.37531222116849017,0.6246877788315098,1533.5313907140983,3181.2408213044155,9386.51807172351,1.7946628011380308,1.5688904995258206,1.08,,,binary
Au0.381Ni0.619,Au,Ni,0.3808723918638741,0.6191276081361259,1444.875347956339,2993.099997325545,13838.267521268916,2.1499496068742405,1.35,0.6300000000000001,,,binary
Ho0.259Sm0.741,Ho,Sm,0.2591664885094985,0.7408335114905015,1413.7348079814178,2001.364658449457,9092.932640318171,1.1855499893105699,1.8240833511490502,0.06000000000000005,,,binary
Pr0.619Tb0.381,Pr,Tb,0.6193047615196601,0.3806952384803399,1412.0526588524674,3042.0780520086573,6921.169769179763,1.1185791428455898,1.8119304761519661,0.029999999999999805,,,binary
Nb0.384Cd0.616,Nb,Cd,0.38408723071271345,0.6159127692872866,1437.9981373079727,3005.1714791609375,7664.160639912347,1.655432149235856,1.5115912769287287,0.08999999999999986,,,binary
Ho0.490Sc0.510,Ho,Sc,0.48999499544348935,0.5100050045565107,1948.0281463130216,3475.8180339912515,5465.2478472552475,1.2963006505923464,1.6734992493165235,0.13000000000000012,,,binary
Lu0.812Mg0.188,Lu,Mg,0.8117059593105764,0.18829404068942357,1688.1438664948848,2903.934783329022,8146.070294018192,1.277531761627577,1.702926489827644,0.040000000000000036,,,binary
Ir0.329Eu0.671,Ir,Eu,0.3292188612446313,0.6707811387553687,1632.9221322723788,2936.801707192344,12170.792648329805,1.5292188612446314,1.6853905693776845,1.0000000000000002,,,binary
Gd0.795Zn0.205,Gd,Zn,0.7946061203931304,0.2053938796068696,1296.8605923363536,2443.3486503215786,7728.241823488185,1.2924272458230912,1.7075727541769088,0.44999999999999996,,,binary
Gd0.437W0.563,Gd,W,0.4374531902746761,0.5625468097253239,2853.341601835369,4939.881500984706,13818.679780323111,1.8525542992813755,1.5468539356236044,1.16,,,binary
Eu0.424Pr0.576,Eu,Pr,0.4238181760841654,0.5761818239158346,1176.2975653861988,3242.5288012478895,6279.236005635889,1.1596672723258914,1.85,0.07000000000000006,,,binary
Mn0.230Fe0.770,Mn,Fe,0.2295995911575883,0.7704004088424117,1678.843074555696,2802.745948340297,7649.075539224838,1.7657121144758754,1.4,0.28,,,binary
Ru0.354Ta0.646,Ru,Ta,0.35350259335644896,0.646497406643551,3547.5273547947845,5172.044454984853,15107.046183515577,1.7474518153495144,1.3969746109965326,0.7000000000000002,,,binary
Cd0.314Tm0.686,Cd,Tm,0.3139779126965103,0.6860220873034897,1364.6079141482392,2055.047945611556,10895.795435265643,1.3881502815864644,1.687204417460698,0.43999999999999995,,,binary
Tb0.317Pt0.683,Tb,Pt,0.3169984810810792,0.6830015189189208,1996.7671020953248,3941.745026083934,17072.479827568943,1.9059417923243265,1.4767993924324316,1.1799999999999997,,,binary
Mg0.698Os0.302,Mg,Os,0.6983163987810598,0.3016836012189402,1250.4298237107819,2735.933626847971,8142.539353239838,1.578498405084857,1.4396632797562119,0.8900000000000001,,,binary
Y0.431Mg0.569,Y,Mg,0.43119124869893855,0.5688087513010615,1356.4389924439076,2165.581296862421,2804.7355360112438,1.2711927876170956,1.6293573746096817,0.09000000000000008,,,binary
Nb0.200Ti0.800,Nb,Ti,0.20003192858560334,0.7999680714143966,2016.3944448911761,4244.919148620048,5118.239729670004,1.5520019157151361,1.41000159642928,0.06000000000000005,,,binary
Rh0.301Dy0.699,Rh,Dy,0.3013176080014547,0.6986823919985453,2232.674943789404,3316.8956105219286,8485.129147005338,1.5393966644815418,1.6294729567994182,1.0599999999999998,,,binary
Lu0.700Er0.300,Lu,Er,0.6997917895320935,0.30020821046790647,1863.8038936891573,3285.6452892846855,7499.901649999365,1.2609937536859628,1.75,0.030000000000000027,,,binary
Tc0.418Zr0.582,Tc,Zr,0.4176364666402895,0.5823635333597105,2614.6671502176546,4946.843012348172,9052.858071367496,1.568052785984965,1.466472706671942,0.5699999999999998,,,binary
Co0.849Mn0.151,Co,Mn,0.8494349293630777,0.15056507063692226,1759.1325546088578,2645.3850642557977,8264.685361160173,1.8303135266898156,1.3575282535318463,0.32999999999999985,,,binary
Sr0.143Ce0.857,Sr,Ce,0.14306035057523792,0.8569396494247621,1155.1103346216319,2997.8651175474924,4561.8328190134835,1.0956797404022096,1.8714590525862858,0.17000000000000015,,,binary
Pt0.712Y0.288,Pt,Y,0.7119970977068766,0.2880029022931234,1926.8121463260557,3901.0707552415925,16524.989926890365,1.974716923569289,1.4796013060319055,1.0599999999999998,,,binary
Fe0.310Co0.690,Fe,Co,0.30996181141198975,0.6900381885880102,1911.1014497851677,3382.2719995741236,8804.054889631489,1.8645019094294004,1.3654980905705996,0.04999999999999982,,,binary
Zn0.624Fe0.376,Zn,Fe,0.6238661404346798,0.3761338595653202,1246.4186813528045,1624.088079655198,7790.284276870187,1.7177040947217574,1.368806692978266,0.18000000000000016,,,binary
Ir0.283Hf0.717,Ir,Hf,0.28348476438162634,0.7165152356183737,2733.2008720243007,4228.129043436092,13559.504699516026,1.5551362879434638,1.4933030471236748,0.9000000000000001,,,binary
Lu0.455Cd0.545,Lu,Cd,0.45452834145117216,0.5454716585488278,1109.6515127574141,2089.6502300173115,9883.836945048239,1.4990980965905076,1.6409056682902343,0.41999999999999993,,,binary
Cu0.771Y0.229,Cu,Y,0.7708142231142997,0.2291857768857003,1369.238968008646,3011.6783042679763,7417.355435865898,1.7441536717177237,1.4531335995985653,0.6799999999999999,,,binary
Ti0.631V0.369,Ti,V,0.6308393082430437,0.3691606917569563,2257.456936552929,3609.0005055023244,5007.368710825261,1.5732244622581262,1.3815419654121521,0.08999999999999986,,,binary
Ta0.474Sr0.526,Ta,Sr,0.4737547813354822,0.5262452186645178,2087.986231487718,4049.360488703734,8577.406860324267,1.2105651297345152,1.7394348702654847,0.55,,,binary
La0.539Ag0.461,La,Ag,0.5388362195780572,0.46116378042194284,1371.8204818306408,3205.889356312426,8018.564967995613,1.4827659377502125,1.7885926768523202,0.8299999999999998,,,binary
Cu0.531Er0.469,Cu,Er,0.531430054766158,0.468569945233842,1957.5445444911122,2837.4681180293896,8670.503907322312,1.5907438361456643,1.537427978093537,0.6599999999999999,,,binary
Nd0.465Sm0.535,Nd,Sm,0.465234736389205,0.534765263610795,1159.6589061345776,2934.61301385378,8294.327237626127,1.1560429579083238,1.85,0.030000000000000027,,,binary
Lu0.802Gd0.198,Lu,Gd,0.8018349681138067,0.19816503188619328,2167.8327343374535,4090.993415510303,9269.678860245393,1.2561284477679664,1.7599082515943096,0.07000000000000006,,,binary
Hg0.612Y0.388,Hg,Y,0.6118292071791187,0.3881707928208813,810.941361165433,1487.7684261495547,2089.30702879668,1.6972267815997126,1.6164512378462645,0.78,,,binary
La0.827Hf0.173,La,Hf,0.8271385213563937,0.17286147864360635,1486.560466624643,3745.07750871663,8365.067257253238,1.1345722957287214,1.8808554085425575,0.19999999999999996,,,binary
Sr0.282La0.718,Sr,La,0.28170275571768144,0.7182972442823186,1040.5843344469135,3283.085954337148,5066.53358912245,1.0577445866423478,1.9640851377858841,0.15000000000000013,,,binary
Fe0.346Mg0.654,Fe,Mg,0.3462945483075578,0.6537054516924422,1309.099391464289,1963.7236850481045,3302.3897312384875,1.4900731651199302,1.4653705451692443,0.52,,,binary
Au0.225Pd0.775,Au,Pd,0.22457403125508374,0.7754259687449163,1730.8298961258938,3548.862655126769,13617.323721940662,2.276355170626729,1.3887712984372458,0.33999999999999986,,,binary
Al0.752Y0.248,Al,Y,0.7523038313287106,0.2476961686712894,1236.830710226543,2681.2977903761835,3130.6745642384685,1.513398494218197,1.3862328927692091,0.3900000000000001,,,binary
Cu0.329Re0.671,Cu,Re,0.32940979879616467,0.6705902012038354,2594.0425569085232,5362.534138550305,17087.784607123038,1.9,1.35,0.0,,,binary
La0.650Al0.350,La,Al,0.6502159710054898,0.3497840289945102,1178.2818897281868,3781.303299715707,5282.348368759193,1.2783898547872004,1.7051511797038428,0.51,,,binary
Ba0.340Sr0.660,Ba,Sr,0.33968841438968533,0.6603115856103147,1061.2291390419196,1639.0166578398062,2928.1097735202297,0.9296186951366188,2.050953262158453,0.05999999999999994,,,binary
Hg0.578Cd0.422,Hg,Cd,0.5776030017806016,0.42239699821939836,365.7452288357042,775.4812175430621,3516.8892172262586,1.8690569305519866,1.52111984991097,0.31000000000000005,,,binary
Al0.399Ce0.601,Al,Ce,0.3989151012216269,0.6010848987783731,914.9367733947756,2652.0775730307623,4757.126531315236,1.3154683995985974,1.6106509392670239,0.49,,,binary
Au0.450Ce0.550,Au,Ce,0.44968509313316385,0.5503149068668362,1212.108701423557,2947.121250516824,12379.361920392994,1.7585528322490926,1.625157453433418,1.42,,,binary
Rh0.672Zr0.328,Rh,Zr,0.6719503863878121,0.3280496136121879,2619.537771320968,4632.139055409681,12227.713524656563,1.9683528670684214,1.4156099227224377,0.9499999999999997,,,binary
Tb0.763Ir0.237,Tb,Ir,0.7627414845130328,0.2372585154869672,1966.3723079014503,4229.399189906241,10799.974359958958,1.3609843670356638,1.6550965938052133,1.1,,,binary
Ru0.163Pd0.837,Ru,Pd,0.16336778654002773,0.8366322134599723,1829.3171410091813,2490.4150526712388,13512.515420603571,2.2,1.3836632213459972,0.0,,,binary
Gd0.513Rh0.487,Gd,Rh,0.5132880494865077,0.48671195051349225,2195.357597115632,3532.7213845078727,9858.1791744821,1.7256489065545715,1.5809796222689285,1.0799999999999998,,,binary
Eu0.648Er0.352,Eu,Er,0.6477122323028154,0.3522877676971846,1245.138833393272,2359.372774334907,7331.824325415108,1.2140915107078873,1.8147712232302817,0.040000000000000036,,,binary
Cd0.694Tb0.306,Cd,Tb,0.6943415137049214,0.30565848629507864,751.8282814617938,1866.2425003707451,8282.58495079986,1.5096614930859036,1.6111316972590157,0.5899999999999999,,,binary
Ag0.250Au0.750,Ag,Au,0.25040050061632413,0.7495994993836759,1326.5628062696105,3090.864972146897,16772.258875423144,2.3872556946240424,1.4126001251540812,0.6100000000000001,,,binary
Mn0.209Nb0.791,Mn,Nb,0.2092992263412195,0.7907007736587806,2466.535155490262,4360.159160440023,9148.992328619746,1.5895350386829392,1.439535038682939,0.050000000000000044,,,binary
Ni0.464Gd0.536,Ni,Gd,0.46427441011505965,0.5357255898849403,1720.5448936552543,3440.7998436002767,7304.925290838953,1.5296348311816923,1.5910765154482234,0.71,,,binary
Mg0.660Ag0.340,Mg,Ag,0.6603780783578979,0.33962192164210214,989.9847475646994,1882.2815770495665,4728.127542915347,1.5205655914181033,1.5339621921642101,0.6199999999999999,,,binary
Ba0.357Mo0.643,Ba,Mo,0.35651497852441905,0.643485021475581,2366.46672638362,4618.132346692201,8683.402008485393,1.707225977273988,1.6995604849670933,1.27,,,binary
Zn0.876Cr0.124,Zn,Cr,0.8757729741035148,0.12422702589648515,885.6194750874954,1327.6421151136965,5316.765588416089,1.6512422702589646,1.3562113512948244,0.010000000000000009,,,binary
Ti0.878Nb0.122,Ti,Nb,0.8778660839931577,0.12213391600684231,2005.459074840325,3616.087303579939,5198.539290146662,1.5473280349604106,1.406106695800342,0.06000000000000005,,,binary
Cd0.200Ag0.800,Cd,Ag,0.20003136226651633,0.7999686377334837,1089.7341693059102,2086.882632519863,8320.844964271166,1.881992473056036,1.5899984318866742,0.24,,,binary
Mg0.107Yb0.893,Mg,Yb,0.10656327147966921,0.8934367285203308,977.086409121877,1527.185920077581,7094.083146375475,1.1223782870107306,1.7233591821300829,0.20999999999999996,,,binary
Fe0.112Zn0.888,Fe,Zn,0.11177987750518055,0.8882201224948194,809.7111617111191,1444.2595673210753,7909.93057740466,1.6701203779509324,1.355588993875259,0.18000000000000016,,,binary
Tc0.436W0.564,Tc,W,0.4361944217179816,0.5638055782820184,2888.33273466506,5458.448131516488,14694.372958628805,2.1593505660097283,1.35,0.45999999999999996,,,binary
Ba0.471Os0.529,Ba,Os,0.47094757376274343,0.5290524262372566,2411.9854787468635,3862.895863499082,14021.240541375508,1.5830586783708063,1.700305437698332,1.31,,,binary
V0.164W0.836,V,W,0.16417847778526717,0.8358215222147328,3177.019019824397,5862.469213040368,20656.030973119836,2.240149711216755,1.35,0.73,,,binary
Zn0.313Cr0.687,Zn,Cr,0.31320286259444297,0.686797137405557,1541.3942097500424,2310.256438836078,7305.367736556018,1.6568679713740555,1.3843398568702778,0.010000000000000009,,,binary
Pt0.535Mn0.465,Pt,Mn,0.5345535604366468,0.4654464395633532,1939.6663383817427,3093.591821850688,10571.724310901553,1.940224099118752,1.3732723219781677,0.7299999999999998,,,binary
Nb0.817Mo0.183,Nb,Mo,0.8165591826530653,0.18344081734693474,3154.199700371146,5377.819801800111,7335.3043239871,1.7027268577142836,1.45,0.56,,,binary
Pd0.763Ir0.237,Pd,Ir,0.7626016379154652,0.2373983620845348,1920.102261477208,4145.792031891047,16651.77279820603,2.2,1.3881300818957731,0.0,,,binary
Ni0.299Tm0.701,Ni,Tm,0.2991698884057873,0.7008301115942127,1959.1921506889687,2466.8769986317257,9273.770040152669,1.4474521263478195,1.6303320446376852,0.6599999999999999,,,binary
Mg0.690Rh0.310,Mg,Rh,0.6900952100428068,0.30990478995719317,1312.7989484049313,2415.164081148931,4614.725286452276,1.6106076462584773,1.453514281506421,0.9699999999999998,,,binary
V0.469Mo0.531,V,Mo,0.46866770824982396,0.531332291750176,2355.4069513536574,4772.515145611201,8288.721836296758,1.9116061146275933,1.4031332291750176,0.5300000000000002,,,binary
Co0.633Y0.367,Co,Y,0.63280630697081,0.36719369302919,2024.6651429369426,3125.2133947848733,7234.220184626392,1.6376521626007345,1.5152371618631357,0.6599999999999999,,,binary
Tc0.411Sr0.589,Tc,Sr,0.4112983684625763,0.5887016315374237,1468.3829851810685,2842.864767081687,5349.952746495194,1.3407334500394472,1.7326560604993255,0.95,,,binary
Hf0.227Ta0.773,Hf,Ta,0.22688914912440927,0.7731108508755907,2960.361588178344,4741.754608190911,16994.986245441152,1.454622170175118,1.472688914912441,0.19999999999999996,,,binary
Yb0.696V0.304,Yb,V,0.6957796629513557,0.30422033704864426,1529.6680506871937,1771.0727064531022,7287.755001881794,1.2612367786357814,1.6283118651805424,0.5299999999999998,,,binary
Ce0.198Y0.802,Ce,Y,0.19771320970840894,0.8022867902915911,2067.661894624851,3630.3706525750804,4595.521915462832,1.2002286790291592,1.8098856604854205,0.09999999999999987,,,binary
Sr0.339Gd0.661,Sr,Gd,0.339050467006705,0.6609495329932951,1800.033301411837,2508.5175038566413,6126.157810790814,1.1152373832483238,1.8678100934013413,0.25,,,binary
Os0.791Cr0.209,Os,Cr,0.7909261325996803,0.20907386740031975,3125.7373318458635,5440.631429939065,20072.644101019276,2.0871001116038275,1.320907386740032,0.5400000000000003,,,binary
Tc0.289Ni0.711,Tc,Ni,0.2887726702267466,0.7112273297732534,1834.4462500299535,3236.237107711347,9326.418562850986,1.9071122732977324,1.35,0.010000000000000009,,,binary
Hg0.112Ta0.888,Hg,Ta,0.11205416421508999,0.88794583578491,2650.7965905857563,5184.07324901602,13950.173711111418,1.556027082107545,1.4556027082107543,0.5,,,binary
Ag0.196Nd0.804,Ag,Nd,0.19571967360859094,0.8042803263914091,1092.8899830109806,3589.7330198598015,7147.846091563491,1.2946185421507868,1.8010700815978526,0.79,,,binary
Rh0.875Al0.125,Rh,Al,0.8750679435848795,0.12493205641512051,1811.1170614016032,3756.786741949783,11308.706794254067,2.196295522201869,1.337506794358488,0.6699999999999997,,,binary
Nd0.480Er0.520,Nd,Er,0.48021654300932004,0.51978345699068,1287.1307936095893,3360.275664774303,7142.424878801541,1.191978345699068,1.798021654300932,0.10000000000000009,,,binary
Sm0.397Zn0.603,Sm,Zn,0.39711893064258696,0.602881069357413,1114.5721297150858,1616.2893898684479,6935.675131946728,1.4593829132915581,1.5485594653212935,0.48,,,binary
Fe0.226Rh0.774,Fe,Rh,0.2261587649579001,0.7738412350420999,1981.141552991615,3739.7122668802604,12114.604097262058,2.1782285557689445,1.361307938247895,0.44999999999999973,,,binary
Fe0.595Ho0.405,Fe,Ho,0.5949158867503529,0.4050841132496471,1775.2710565448244,3010.0659127929184,8295.220928510325,1.5869495320502118,1.5417794396373765,0.6000000000000001,,,binary
Gd0.148Cr0.852,Gd,Cr,0.147820105287538,0.852179894712462,1965.716908546518,2925.610590670526,5739.771990137407,1.5920027515677324,1.4591280421150152,0.45999999999999996,,,binary
Tb0.661Zn0.339,Tb,Zn,0.6610625120184024,0.3389374879815976,1439.3644678229748,2796.791181308936,7245.869420469565,1.2864156183898787,1.614425004807361,0.5499999999999998,,,binary
Co0.490Cu0.510,Co,Cu,0.4902743055383839,0.5097256944616161,1854.888118596693,3227.8452737255634,7986.970436827734,1.8901945138892322,1.35,0.020000000000000018,,,binary
Ta0.731Ce0.269,Ta,Ce,0.7308494606294988,0.26915053937050115,2922.5767176372483,5371.966700905104,14520.179922765863,1.3977227950392095,1.5576602157482005,0.3799999999999999,,,binary
Re0.687Mg0.313,Re,Mg,0.6865510654030162,0.31344893459698375,2550.6682278886838,4657.366984452099,14584.066395293312,1.7150651285877796,1.3970173401895476,0.5899999999999999,,,binary
Ti0.402Er0.598,Ti,Er,0.40221514915327716,0.5977848508467228,1961.196707546016,2679.0814184989104,6918.51078113469,1.3606645447459833,1.609224697796353,0.30000000000000004,,,binary
Yb0.301Cu0.699,Yb,Cu,0.30055699288048177,0.6994430071195182,1499.7252003440883,2474.1820297221293,7717.7169437438915,1.6595544056956146,1.4702227971521928,0.7999999999999998,,,binary
V0.665Ba0.335,V,Ba,0.6653007831424474,0.33469921685755255,1706.997858447711,2781.012245280841,4082.6910419602495,1.382322579525411,1.617759373486042,0.7399999999999999,,,binary
Ce0.534Cd0.466,Ce,Cd,0.5341872614445554,0.4658127385554446,827.769488218975,2458.09548412846,7562.542018374996,1.3855132609766034,1.7102561784333667,0.5699999999999998,,,binary
Ba0.553Mo0.447,Ba,Mo,0.5533613871730967,0.4466386128269033,1820.07024868101,3394.289024183308,7202.041781141245,1.4572310382901672,1.8373529710211676,1.27,,,binary
La0.359Re0.641,La,Re,0.35894470055343153,0.6410552994465685,2595.2462693371745,4812.763686999934,15240.222062082452,1.6128442395572549,1.565366820332059,0.7999999999999998,,,binary
Ca0.794Ag0.206,Ca,Ag,0.7941294719657277,0.2058705280342723,1205.7176263272202,2164.3824425211997,3177.5114838169943,1.1914595910718733,1.7588258943931456,0.9299999999999999,,,binary
Sm0.228Ce0.772,Sm,Ce,0.22827472727821219,0.7717252727217878,1142.4238070168471,3388.475481185236,6161.594046752275,1.1314137363639107,1.85,0.04999999999999982,,,binary