formula,element_1,element_2,composition_1,composition_2,melting_point,boiling_point,density,electronegativity,atomic_radius,electronegativity_difference,element_3,composition_3,alloy_type
Cd0.339Yb0.661,Cd,Yb,0.33884467981741373,0.6611553201825863,1087.4962703921829,1349.831808860241,6800.903564474225,1.2999183610922742,1.6822310640365172,0.5899999999999999,,,binary
Nd0.492Dy0.508,Nd,Dy,0.4917122773245608,0.5082877226754392,1419.4941964514574,3002.708261339778,8016.195915805582,1.1806630178140352,1.799171227732456,0.08000000000000007,,,binary
Zn0.531Mg0.469,Zn,Mg,0.530864462163099,0.469135537836901,842.5963709237245,1193.2298849631436,4594.512757410811,1.4904939171354536,1.420370330675535,0.33999999999999986,,,binary
Re0.542W0.458,Re,W,0.5415339336566488,0.4584660663433512,4331.388243739693,6860.850696133329,21090.260407648715,2.1108943905179416,1.35,0.45999999999999996,,,binary
La0.464Ir0.536,La,Ir,0.46427569349320086,0.5357243065067991,2028.9111540330916,4307.311905613768,15907.109780500776,1.6892967371574792,1.6285654160959204,1.1,,,binary
Ta0.885Mo0.115,Ta,Mo,0.8846197050660755,0.11538029493392454,2912.691008094214,5491.433162059069,13259.471375539286,1.57615099465639,1.45,0.6600000000000001,,,binary
Rh0.406Pr0.594,Rh,Pr,0.4063766791436818,0.5936233208563182,1691.0817341334616,3968.83018450691,8566.130027373336,1.5973331810152338,1.6468116604281593,1.15,,,binary
Au0.355V0.645,Au,V,0.3545410617870399,0.6454589382129601,2179.5845535419244,3057.511703677908,9206.863781341046,1.9526323662262062,1.35,0.9100000000000001,,,binary
Sr0.831Tm0.169,Sr,Tm,0.8307441342557007,0.1692558657442993,1206.4735614719007,1934.4986245136245,4396.06727568308,1.0007767597232897,1.9576860335639252,0.30000000000000004,,,binary
Ir0.734Dy0.266,Ir,Dy,0.7339149285599443,0.26608507144005566,2344.4581382180204,4659.488958567273,18825.69147538465,1.9392366299887454,1.4564340285760222,0.9800000000000002,,,binary
Tb0.496Zn0.504,Tb,Zn,0.49626291969313885,0.5037370803068612,1137.3620335516284,2538.960610626341,8176.156008042656,1.3770553941687735,1.5485051678772557,0.5499999999999998,,,binary
V0.502Cu0.498,V,Cu,0.5018329201063727,0.4981670798936273,1492.5770357463002,3948.939588220522,8546.27733033205,1.7645051115712793,1.35,0.27,,,binary
Nd0.796W0.204,Nd,W,0.7957602506897724,0.2042397493102276,1674.9934447738142,4027.7590453313824,9804.346654325196,1.3891724941584775,1.7478801253448863,1.22,,,binary
Mg0.521Co0.479,Mg,Co,0.5207608694460492,0.47923913055395084,1362.5734222249814,2119.9089002093615,4823.060507620171,1.583166304415752,1.4281141304169074,0.5699999999999998,,,binary
Ca0.678Al0.322,Ca,Al,0.6779550620565141,0.3220449379434859,1053.839294687851,2335.4539939333804,2024.7420255731756,1.1964474121455264,1.6228752841310827,0.6100000000000001,,,binary
Au0.876Tb0.124,Au,Tb,0.8759654352328851,0.12403456476711494,1322.6030175779356,3420.433281317395,12819.397122314804,2.3613902267353546,1.399613825906846,1.44,,,binary
Mn0.725Sr0.275,Mn,Sr,0.7252202330184199,0.27477976698158013,1549.8214590704679,1773.8341324168396,5917.524800293907,1.3851321398110519,1.564867860188948,0.6000000000000001,,,binary
Pd0.599W0.401,Pd,W,0.5986075204175985,0.40139247958240154,2288.8426468427842,3722.750515830203,16656.265496329204,2.2642227967331845,1.3799303760208799,0.1599999999999997,,,binary
Pt0.164Tb0.836,Pt,Tb,0.16425225646355923,0.8357477435364408,1617.3810077529108,3725.496788010723,10284.60733278087,1.293817662627,1.6842990974145762,1.1799999999999997,,,binary
W0.787Ho0.213,W,Ho,0.7874737473346133,0.21252625266538672,3434.6212607340694,5265.631261247025,14843.35399002307,2.119845334488113,1.4350105010661547,1.13,,,binary
Ir0.601Ta0.399,Ir,Ta,0.6014393432063903,0.39856065679360975,3253.36311270017,4859.132936100948,17105.21344110373,1.921007540244473,1.389856065679361,0.7000000000000002,,,binary
Ba0.129La0.871,Ba,La,0.12871927987014928,0.8712807201298507,1118.1465991135935,4067.87526672082,6300.393895318443,1.0729689512272687,1.9757438559740297,0.21000000000000008,,,binary
Mn0.605Rh0.395,Mn,Rh,0.6049288134837124,0.3950711865162876,1739.8109474902446,2875.483368047294,9133.912892419507,1.8384019661568898,1.3802464406741857,0.7299999999999998,,,binary
Cd0.697Ru0.303,Cd,Ru,0.6974130933903415,0.3025869066096585,1453.147833239785,2142.469672143835,10196.015806894322,1.8443193223709258,1.4743532733475855,0.5100000000000002,,,binary
Hg0.708Co0.292,Hg,Co,0.7082957543954124,0.29170424560458763,751.9354901296969,1412.538146685305,2528.9160984643145,1.9649954905274494,1.4562443631593118,0.1200000000000001,,,binary
Tm0.455Co0.545,Tm,Co,0.4549428413293647,0.5450571586706353,1755.5858489570576,2735.790967743849,9057.690224725286,1.5933860099625001,1.5319771365317458,0.6299999999999999,,,binary
Er0.823Hf0.177,Er,Hf,0.8227392496403888,0.1772607503596112,2066.9906152023295,3466.461186827805,10537.622237710008,1.2506356450215765,1.7145478499280777,0.06000000000000005,,,binary
V0.737Ta0.263,V,Ta,0.7369147721297694,0.2630852278702306,2454.2641656909477,4252.76861135126,7107.932958631821,1.59579892037687,1.376308522787023,0.1299999999999999,,,binary
Cd0.400Re0.600,Cd,Re,0.3998728718202519,0.6001271281797481,2525.440221237562,4074.4615454762193,17677.731368783003,1.816026696917747,1.4299745743640504,0.20999999999999996,,,binary
Zn0.525Rh0.475,Zn,Rh,0.5249330545190081,0.47506694548099193,1013.2322321827661,3027.517299580293,9527.725529900697,1.9492921756530248,1.35,0.6299999999999999,,,binary
Pr0.734Ho0.266,Pr,Ho,0.7340155791047626,0.26598442089523744,1497.2806322389515,3056.6365284761723,7655.202281286645,1.1565984420895237,1.8234015579104763,0.10000000000000009,,,binary
Zr0.163Nb0.837,Zr,Nb,0.16317468052799572,0.8368253194720043,2369.5076733634414,4652.801335021678,9810.04121553648,1.5559428362574412,1.4663174680527997,0.27,,,binary
Ir0.647Eu0.353,Ir,Eu,0.6465076639701711,0.3534923360298289,2118.0990411768403,3755.4365930355343,17932.472913861962,1.8465076639701712,1.5267461680149146,1.0000000000000002,,,binary
Ba0.214Nd0.786,Ba,Nd,0.21449417610280774,0.7855058238971923,1294.4274404858709,3155.939990665601,6316.732861162226,1.0863764559742979,1.9143482528308424,0.2499999999999999,,,binary
Ca0.303Gd0.697,Ca,Gd,0.30318187153083387,0.6968181284691661,1789.1983049864257,2970.366733617167,6095.658507063856,1.139363625693833,1.8000000000000003,0.19999999999999996,,,binary
Pd0.108Dy0.892,Pd,Dy,0.10751794516389684,0.8924820548361032,1874.1004053174977,3201.253480759798,9983.64403488308,1.325367586260619,1.7123687191926362,0.9800000000000002,,,binary
Ca0.642Cd0.358,Ca,Cd,0.6420887085592636,0.3579112914407364,987.9198904668407,1328.8837068004846,4759.434805072093,1.2469587910941082,1.710522177139816,0.69,,,binary
Zr0.453Mn0.547,Zr,Mn,0.45338382688305157,0.5466161731169484,1589.3290566841506,3501.397257067562,6504.556393662649,1.4502555580857286,1.4680075740324576,0.21999999999999997,,,binary
Re0.339Nd0.661,Re,Nd,0.3393233992990178,0.6606766007009822,2017.5931463760749,4358.687337590741,11998.762244868602,1.3978857834672533,1.6803383003504913,0.76,,,binary
Hg0.300Er0.700,Hg,Er,0.300078579526161,0.699921420473839,1387.7546329831719,2772.734865559321,6633.277226568997,1.4680597204398824,1.6749803551184599,0.76,,,binary
Hf0.899Mo0.101,Hf,Mo,0.8994988524001434,0.10050114759985662,2483.0528119005153,5350.055755291474,14552.445169331684,1.3864309869358769,1.5399498852400144,0.8600000000000001,,,binary
Sr0.290Co0.710,Sr,Co,0.2897645615420597,0.7102354384579403,1368.4484809500332,2916.7369952118133,7579.829207112903,1.6105189577658847,1.538346965002339,0.9299999999999999,,,binary
Pr0.560Re0.440,Pr,Re,0.5598495441429161,0.4401504558570839,2133.3510475359194,5207.783735209073,12774.751009053114,1.4689158510099545,1.629924772071458,0.77,,,binary
Er0.118Cd0.882,Er,Cd,0.117551678287652,0.882448321712348,745.4414613839097,1264.70214635263,8712.453558202307,1.6371017447705565,1.5735103356575304,0.44999999999999996,,,binary
Dy0.320Pt0.680,Dy,Pt,0.3195843041425822,0.6804156958574178,1714.7703687561886,3163.7254752343606,19806.58274255919,1.9412406376088627,1.477833721657033,1.0599999999999998,,,binary
Pr0.723Ho0.277,Pr,Ho,0.7226492926160624,0.27735070738393763,1239.2175208973345,3067.349914736627,5679.133598518341,1.1577350707383938,1.8222649292616064,0.10000000000000009,,,binary
Cr0.696Sm0.304,Cr,Sm,0.696137723307176,0.30386227669282395,1803.193394974789,2325.626726925847,8387.749048975804,1.5111074844205161,1.5367380245117706,0.49,,,binary
Cd0.586Ru0.414,Cd,Ru,0.5856519985314128,0.4143480014685872,1572.4345952978717,2273.710915514481,12486.916263155594,1.9013174807489794,1.4464129996328534,0.5100000000000002,,,binary
Re0.609Ru0.391,Re,Ru,0.6092943024047135,0.3907056975952865,3433.0302949203624,5131.747710389801,13231.345129330399,2.0172117092785857,1.3304647151202356,0.30000000000000027,,,binary
Eu0.642Pd0.358,Eu,Pd,0.6422115668986875,0.3577884331013125,1671.3784879648442,1992.2671094970365,6407.517809972167,1.5577884331013125,1.6889952051044095,1.0000000000000002,,,binary
Yb0.645Dy0.355,Yb,Dy,0.6446840753456182,0.3553159246543818,1437.5076235298109,2433.3874043401233,8280.784400863022,1.1426379109585258,1.75,0.11999999999999988,,,binary
Cu0.178Gd0.822,Cu,Gd,0.17773114385249436,0.8222688561475057,1631.7163529201573,3671.7104793709154,8771.84771011691,1.324411800696746,1.7200209852663777,0.7,,,binary
Gd0.132Tb0.868,Gd,Tb,0.1315380591686539,0.8684619408313461,1746.4025495003514,3604.206091748173,8262.377920653344,1.1131538059168655,1.7565769029584326,0.09999999999999987,,,binary
Mg0.564V0.436,Mg,V,0.5636590442947222,0.43634095570527776,1463.5709533822433,2195.0106506038096,3543.3574323072326,1.449629105825689,1.4345488566442084,0.31999999999999984,,,binary
Yb0.172Cu0.828,Yb,Cu,0.17210670059697514,0.8278932994030248,1090.6231732537615,2873.544322389252,7673.709627135934,1.7623146395224196,1.4188426802387901,0.7999999999999998,,,binary
Cd0.698Ta0.302,Cd,Ta,0.6979846919506972,0.30201530804930277,1252.9587614399936,2500.949374184648,12606.52924153506,1.6326170914706324,1.5197984691950697,0.18999999999999995,,,binary
Nb0.206Mo0.794,Nb,Mo,0.20572783819742685,0.7942721618025732,3129.149944685495,4158.779021723279,8945.682256061764,2.0447924106094413,1.45,0.56,,,binary
La0.525Os0.475,La,Os,0.524681898962228,0.47531810103777195,2404.067236129745,4036.184999093129,13657.787927652851,1.6228499111415493,1.6410432343254482,1.1,,,binary
Ag0.306Zr0.694,Ag,Zr,0.30557606765060985,0.6944239323493901,1957.1393011185285,3608.481081750644,7808.309637862452,1.5133456405903658,1.5652788033825307,0.5999999999999999,,,binary
Sr0.697Cd0.303,Sr,Cd,0.6972474805736361,0.30275251942636394,790.3468032068762,1380.4778879912853,4594.955316935869,1.1740368643755092,1.8637613662581363,0.74,,,binary
W0.475Ni0.525,W,Ni,0.47466511108215625,0.5253348889178437,2237.664504055015,4635.638880062958,13789.853058390923,2.12359929998697,1.35,0.44999999999999996,,,binary
Mn0.703Zn0.297,Mn,Zn,0.7033211944490684,0.2966788055509316,1344.2272121514134,2036.2281286021494,8377.753414097497,1.5796678805550932,1.3851660597224535,0.09999999999999987,,,binary
Ru0.679Ho0.321,Ru,Ho,0.6793733696604145,0.3206266303395855,2356.23385746292,3794.265923567813,11361.023576311032,1.8889921685706024,1.4442819836528136,0.9700000000000002,,,binary
Pt0.393Ce0.607,Pt,Ce,0.3926200395244531,0.6073799604755469,1528.9641415525055,3834.211212015723,12393.224005572025,1.5754392458483657,1.6536899802377736,1.1599999999999997,,,binary
Pt0.312Al0.688,Pt,Al,0.31156686268193906,0.688433137318061,1188.9031049748367,2986.8505290173553,7247.358390286024,1.8187497979968992,1.281156686268194,0.6699999999999997,,,binary
Ni0.395Ca0.605,Ni,Ca,0.39486852689283125,0.6051314731071687,1594.4814899553892,2032.5332413075882,4146.722685828711,1.3593303594724764,1.622309162898226,0.9099999999999999,,,binary
Lu0.310Ho0.690,Lu,Ho,0.30972912659978913,0.6902708734002109,1664.3364707221237,3490.990089093439,8850.01274301197,1.2423891650639916,1.75,0.040000000000000036,,,binary
Ir0.852Gd0.148,Ir,Gd,0.8522335134236434,0.1477664865763566,2888.95721525459,4222.046514995175,21041.70965850843,2.0522335134236434,1.4164949189593605,1.0000000000000002,,,binary
Co0.287Ho0.713,Co,Ho,0.2870575217692666,0.7129424782307334,1598.0954816781648,3707.210711632407,7777.068685129567,1.4165873891500231,1.6351769912922935,0.6499999999999999,,,binary
Ti0.807Eu0.193,Ti,Eu,0.8073878761718818,0.1926121238281182,1833.9321376465577,3425.142364126108,4841.328479167688,1.4745118778984398,1.4866754557226531,0.3400000000000001,,,binary
Ce0.832Ta0.168,Ce,Ta,0.8322047269945275,0.16779527300547248,1414.1440892574428,3933.3004862640364,8397.036895620027,1.1837622037420796,1.782881890797811,0.3799999999999999,,,binary
Ru0.151Tb0.849,Ru,Tb,0.15057363292815637,0.8494263670718436,1750.1496205711173,3992.526996696545,10799.024578734268,1.265630996220972,1.6822418651823297,1.1,,,binary
Ca0.342Er0.658,Ca,Er,0.34175213962340023,0.6582478603765998,1479.8452599312818,2302.5495437955237,6440.030620667323,1.157979486490384,1.76708760698117,0.24,,,binary
Au0.212Ni0.788,Au,Ni,0.21182161000577687,0.7881783899942232,2069.6737245825916,2918.8457940276908,12930.18603632639,2.0434476143036395,1.3500000000000003,0.6300000000000001,,,binary
V0.897Hf0.103,V,Hf,0.8967418998040236,0.10325810019597637,2588.189983296096,3592.9395834583456,7243.408503289469,1.5959248269353277,1.3706516200391954,0.32999999999999985,,,binary
Ni0.288Co0.712,Ni,Co,0.2878400259450633,0.7121599740549367,2042.5120510263225,3074.802141915097,8721.069320855551,1.8886352007783518,1.35,0.030000000000000027,,,binary
La0.411Cu0.589,La,Cu,0.410916664920114,0.589083335079886,1215.0227434430633,3075.763556714456,7274.971633767109,1.5712666680639087,1.5965499989520686,0.7999999999999998,,,binary
Os0.860Dy0.140,Os,Dy,0.8595046147295243,0.14049538527047567,2700.880215545144,4958.331090622603,19045.952911448447,2.062314522434934,1.3632229233717141,0.9800000000000002,,,binary
Er0.435La0.565,Er,La,0.4353014027317783,0.5646985972682217,1492.186844262583,2939.349285330713,7662.496614427796,1.1609421963824489,1.8629397194536443,0.1399999999999999,,,binary
Lu0.224Yb0.776,Lu,Yb,0.223618321927868,0.776381678072132,1389.0273840321202,1571.0708706607604,7574.571272109075,1.1380151147277375,1.75,0.16999999999999993,,,binary
Au0.179Tb0.821,Au,Tb,0.17921730776842282,0.8207826922315772,1770.2976570371025,3020.3433719390105,11911.751551116102,1.358072923186529,1.6783130768926309,1.44,,,binary
Ba0.426Eu0.574,Ba,Eu,0.42649270855816046,0.5735072914418395,1101.0581963148759,1809.0714581326042,4479.3406762406785,1.0677872603469702,1.9779478125674483,0.30999999999999994,,,binary
Ag0.652V0.348,Ag,V,0.6522245309980509,0.3477754690019491,1652.0038573973502,2889.7786566416676,9449.83212218532,1.8256673592994153,1.513056132749513,0.30000000000000004,,,binary
Tc0.456Mg0.544,Tc,Mg,0.4557566878232667,0.5442433121767333,1461.612961603064,2857.61834086157,5312.417944443458,1.5788964458157273,1.43163649682651,0.5899999999999999,,,binary
Rh0.179Os0.821,Rh,Os,0.17948369968490427,0.8205163003150957,3079.4946621826275,4592.271350766129,19257.540296496147,2.2143586959747923,1.3089741849842453,0.07999999999999963,,,binary
Ho0.536Os0.464,Ho,Os,0.535572689185716,0.464427310814284,2768.6629466641834,4500.262919752107,16137.627150388502,1.6804944914898556,1.5410077101335724,0.9700000000000002,,,binary
Tb0.148Re0.852,Tb,Re,0.14844007133328702,0.851559928666713,2839.195850361085,5343.2032282262535,21439.239449315406,1.7812479429333703,1.409376028533315,0.7999999999999998,,,binary
Ag0.875Mo0.125,Ag,Mo,0.8745655007491094,0.12543449925089056,1463.7392800953853,3382.519857430624,10875.213120531162,1.9588499348277049,1.5811848251123664,0.2300000000000002,,,binary
Ca0.630Fe0.370,Ca,Fe,0.6302149904495824,0.3697850095504176,1398.7266182882581,2196.1421717968565,3940.448053650177,1.3069215579268465,1.6520859961798329,0.8300000000000001,,,binary
Tb0.578Gd0.422,Tb,Gd,0.5777167676156361,0.42228323238436394,1585.865497432228,3760.0941789334433,8858.180387048094,1.1422283232384365,1.7711141616192183,0.09999999999999987,,,binary
Ti0.729Cr0.271,Ti,Cr,0.7294356723636934,0.27056432763630656,1848.021729053598,2941.600786288276,4261.007599724833,1.5724677193163568,1.4,0.11999999999999988,,,binary
Rh0.730Cu0.270,Rh,Cu,0.7295824799810527,0.27041752001894725,2100.8005027514932,3345.4182652845143,9020.586671368746,2.1772413423928,1.35,0.3799999999999999,,,binary
Tc0.764Mn0.236,Tc,Mn,0.7638542697737061,0.23614573022629393,2300.9363973201666,5019.106044986097,10541.928907712165,1.817348994420797,1.3618072865113147,0.34999999999999987,,,binary
Ce0.569Tc0.431,Ce,Tc,0.5691064668652496,0.43089353313475043,1793.6369012048194,4055.878260045673,8675.381389102547,1.4560969558451053,1.634553233432625,0.7799999999999998,,,binary
Ru0.719W0.281,Ru,W,0.7194948622438561,0.28050513775614394,3179.842086484614,4677.281285761576,14682.243023780062,2.244880822040983,1.3140252568878072,0.1599999999999997,,,binary
Sm0.322Al0.678,Sm,Al,0.32181987678054635,0.6781801232194536,1100.1985775873486,2390.440456350818,4613.830508929102,1.4683992542165596,1.4430919260683277,0.44000000000000017,,,binary
Zn0.532Cu0.468,Zn,Cu,0.5321723654905212,0.46782763450947884,986.2645402442901,1964.4150818969713,8400.47817305567,1.7669569086273698,1.35,0.25,,,binary
Nb0.629Ni0.371,Nb,Ni,0.6288461140778534,0.3711538859221466,2157.6826556190686,4349.640578643713,8687.520635492443,1.7150577046358655,1.4128846114077853,0.30999999999999983,,,binary
Ti0.112Cu0.888,Ti,Cu,0.11188826178456708,0.8881117382154329,1577.5524174347252,3394.0952825293984,8405.148791914991,1.8597202257575558,1.3555944130892283,0.3599999999999999,,,binary
Rh0.359Nd0.641,Rh,Nd,0.35901716956961793,0.6409828304303821,1768.138089759899,4085.2291707495315,9320.906881086521,1.5492795733093643,1.670491415215191,1.14,,,binary
Nb0.142Pd0.858,Nb,Pd,0.14191921428894122,0.8580807857110588,1960.9203864671238,3031.0901897913354,10304.56237646929,2.1148484714266353,1.4070959607144469,0.6000000000000001,,,binary
Lu0.521Au0.479,Lu,Au,0.5208684212782937,0.4791315787217063,1593.2672398465086,3205.3436190088332,14104.369774872184,1.878497104976567,1.5583473685113174,1.27,,,binary
Lu0.481Mn0.519,Lu,Mn,0.4809967723386003,0.5190032276613997,1723.996099461109,3136.8130263171233,8549.740773762253,1.415320903745192,1.56834887031851,0.28,,,binary
Os0.575Sc0.425,Os,Sc,0.5749328142944217,0.42506718570557833,2801.7832563965344,4385.598148970336,11449.449626114845,1.8429435640073142,1.4275201557116737,0.8400000000000001,,,binary
Mg0.277Sc0.723,Mg,Sc,0.277239805134628,0.722760194865372,1419.7874186793933,2582.843114746812,2320.0094114458216,1.3461380097432687,1.5722760194865373,0.050000000000000044,,,binary
Eu0.682V0.318,Eu,V,0.6817943977309882,0.31820560226901184,1530.5606743067983,2765.3352583071946,6192.26970572206,1.336828408975675,1.6908971988654942,0.42999999999999994,,,binary
Dy0.341Y0.659,Dy,Y,0.341304263222471,0.658695736777529,1720.8533228416363,3845.4140421827356,5951.361363935323,1.22,1.7829347868388763,0.0,,,binary
Tb0.149Ti0.851,Tb,Ti,0.14866032599560466,0.8513396740043954,1830.7530641784344,3333.674788445269,4905.812944491917,1.474589456561934,1.4520311140984616,0.43999999999999995,,,binary
Sr0.441Pt0.559,Sr,Pt,0.4410188954239934,0.5589811045760066,1541.9035562657737,3072.066606482747,13156.71508559685,1.6934448690860886,1.6366622820255956,1.3299999999999998,,,binary
Co0.670Ba0.330,Co,Ba,0.669921051917677,0.33007894808232296,1514.9606874324634,2975.6822797298805,7968.718735909452,1.5532218413985004,1.6140631584658585,0.9899999999999999,,,binary
Mg0.819Mn0.181,Mg,Mn,0.8194134120988278,0.1805865879011722,1128.4934668746018,1309.9203607087022,2064.888751105532,1.3533407810962814,1.4819413412098827,0.24,,,binary
Ta0.219Sm0.781,Ta,Sm,0.21866706052829166,0.7813329394717083,1935.7107810687485,2482.219301081672,9174.984031898248,1.2421601299743363,1.7625331757886833,0.33000000000000007,,,binary
Cu0.599Ag0.401,Cu,Ag,0.5994539954249664,0.40054600457503364,1155.4498079122995,2372.1644354160144,10065.892255729643,1.912016380137251,1.4501365011437586,0.030000000000000027,,,binary