formula,element_1,element_2,composition_1,composition_2,melting_point,boiling_point,density,electronegativity,atomic_radius,electronegativity_difference,element_3,composition_3,alloy_type
Yb0.757Dy0.243,Yb,Dy,0.7570426480976022,0.24295735190239776,1437.7658804229309,1798.3893226657915,7255.210554575595,1.129154882228288,1.75,0.11999999999999988,,,binary
Fe0.459Tc0.541,Fe,Tc,0.45936268929556545,0.5406373107044345,1892.6982464510725,3807.5362629866386,10433.780189047357,1.8678446117493104,1.3729681344647782,0.06999999999999984,,,binary
Sr0.275Zr0.725,Sr,Zr,0.27549105185487016,0.7245089481451299,1546.228504193884,3925.375557073284,5496.667907461667,1.2253134002951493,1.6739709733346917,0.3800000000000001,,,binary
Au0.214Sm0.786,Au,Sm,0.21416970965037382,0.7858302903496261,1348.9036988888301,2540.2249721489793,10243.170459728353,1.463412502221012,1.7429151451748133,1.37,,,binary
Nd0.599Nb0.401,Nd,Nb,0.5985693911293074,0.4014306088706926,2158.1973817028043,3632.2420464250235,7612.618761284476,1.3246580800805186,1.6894277564517228,0.4600000000000002,,,binary
Sc0.234Pd0.766,Sc,Pd,0.23417736127487895,0.765822638725121,1840.1729677662431,2862.1739128764857,10853.859131608251,2.003291016529102,1.4468354722549757,0.8400000000000001,,,binary
Ho0.838W0.162,Ho,W,0.8378815558759579,0.16211844412404208,2528.9173016146137,3446.7342619703995,11019.712845639586,1.4131938418601675,1.6851526223503832,1.13,,,binary
Sm0.155Nd0.845,Sm,Nd,0.15507431763299576,0.8449256823670043,1315.468525455461,2945.5289285222852,5632.024979127442,1.1446522295289898,1.85,0.030000000000000027,,,binary
Ir0.187Cu0.813,Ir,Cu,0.1868560911212124,0.8131439088787876,1501.8180372729657,2996.0039159679714,13442.786389135908,1.9560568273363637,1.35,0.30000000000000027,,,binary
Mo0.788Y0.212,Mo,Y,0.7876733536084845,0.21232664639151555,2632.423063372321,4474.993065528819,9851.207127948985,1.9604129523919755,1.5243143262370304,0.9400000000000002,,,binary
Sc0.436Ho0.564,Sc,Ho,0.4358360101372849,0.5641639898627151,1570.4440433754853,2807.7430579512807,6305.425032746726,1.286658681317847,1.6846245984794073,0.13000000000000012,,,binary
Zn0.177Sm0.823,Zn,Sm,0.17703886137856353,0.8229611386214365,1356.0025987408062,2013.564925256454,7496.947783648013,1.2549786534617104,1.7614805693107183,0.48,,,binary
Sr0.580Eu0.420,Sr,Eu,0.5798510374965463,0.4201489625034537,1078.9504846809725,1784.5989345047979,3803.451023303173,1.0550372406258635,1.936977655624482,0.25,,,binary
La0.702Sc0.298,La,Sc,0.7019065208287024,0.2980934791712976,1236.1739182146332,3568.588527396033,4645.00829829867,1.1775043045845375,1.845667282290046,0.26,,,binary
Fe0.628Sr0.372,Fe,Sr,0.6275140889306595,0.3724859110693405,1539.9238900154028,2458.9374879929414,7424.17146686761,1.5022123982589803,1.6234915466416042,0.8800000000000001,,,binary
Sm0.762La0.238,Sm,La,0.7620174229216587,0.23798257707834125,1303.605165026981,2125.488257412944,6970.946579621907,1.153341219604516,1.873798257707834,0.06999999999999984,,,binary
Ho0.445Tb0.555,Ho,Tb,0.4451974601867451,0.5548025398132549,1762.7770535260997,3824.1348393234357,7975.84726138396,1.157875669824277,1.75,0.1299999999999999,,,binary
Au0.800Os0.200,Au,Os,0.799859440585603,0.200140559414397,1457.3685170879369,3851.338112833954,17206.44988236057,2.471952209799105,1.3399929720292802,0.33999999999999986,,,binary
Er0.443Y0.557,Er,Y,0.4431650115816965,0.5568349884183035,1721.8071444581624,3313.966621797682,6462.583307693009,1.2288633002316338,1.777841749420915,0.020000000000000018,,,binary
Sr0.380Ir0.620,Sr,Ir,0.38041425102381754,0.6195857489761825,2240.9623028613514,3300.0972777476386,14622.579216255008,1.724482186220228,1.5972692631654815,1.2500000000000002,,,binary
Lu0.561Er0.439,Lu,Er,0.5608966535193736,0.43910334648062643,1868.320319204873,3491.9882717020128,9593.63752052378,1.2568268996055814,1.75,0.030000000000000027,,,binary
Hg0.304Cu0.696,Hg,Cu,0.30361442254269855,0.6963855774573015,1061.001966983443,2623.8561947200524,6455.654214857605,1.9303614422542699,1.395542163381405,0.10000000000000009,,,binary
Ru0.327Fe0.673,Ru,Fe,0.32661333440716467,0.6733866655928353,2164.921060085287,2992.52352634043,9389.378546139993,1.9508469337306509,1.3673386665592835,0.3700000000000001,,,binary
La0.306Au0.694,La,Au,0.3062439810575307,0.6937560189424693,1355.1363564765118,3558.826062748077,14214.331648668327,2.0990086672771557,1.5337463886345186,1.44,,,binary
Al0.695Tm0.305,Al,Tm,0.6949165450896173,0.3050834549103827,1124.0215939587963,2468.084561951532,4973.142638899502,1.5001699562322623,1.4025417274551912,0.3600000000000001,,,binary
Al0.518Pr0.482,Al,Pr,0.5180325038303649,0.4819674961696351,1175.973980838405,3034.692984705277,5016.519438816261,1.3786556018385752,1.5391804977017811,0.4800000000000002,,,binary
Y0.400Al0.600,Y,Al,0.4000239053639538,0.5999760946360462,1295.5044352145226,3080.057039762326,3336.7848086145336,1.4539906769080582,1.4700131479501746,0.3900000000000001,,,binary
Tc0.743Er0.257,Tc,Er,0.7434297222846848,0.25657027771531515,2438.270566884971,4315.648892644998,13350.583695804144,1.730663616707892,1.4526281110861263,0.6599999999999999,,,binary
Au0.185Os0.815,Au,Os,0.18526657315956696,0.814733426840433,2690.6088708572693,5138.687236354791,20832.696477923724,2.262990634874253,1.3092633286579785,0.33999999999999986,,,binary
Hg0.568Tb0.432,Hg,Tb,0.5682961479045912,0.43170385209540885,763.7008060967269,1868.1845811208839,3596.909009454625,1.611466533114132,1.607925963023852,0.8999999999999999,,,binary
Pd0.439La0.561,Pd,La,0.4388492379466905,0.5611507620533095,1901.1562451608972,3455.674838670606,7739.022810077054,1.5827341617413597,1.7086329191293201,1.1,,,binary
Os0.320Eu0.680,Os,Eu,0.32044843430399106,0.6795515656960089,1855.5417009946627,2311.6395063970895,10709.512274313309,1.520448434303991,1.673753361132805,1.0000000000000002,,,binary
Ho0.704Pt0.296,Ho,Pt,0.7039775204878668,0.29602247951213323,1827.9219199104193,3583.9204975780804,13645.256355969368,1.5408236034877398,1.6315910081951466,1.0499999999999998,,,binary
Au0.727Ce0.273,Au,Ce,0.72703073357083,0.27296926642916997,1200.1694956679414,3217.3772900493864,14642.70199398954,2.152383641670579,1.4864846332145851,1.42,,,binary
Sr0.396Nb0.604,Sr,Nb,0.39617037510331765,0.6038296248966823,1842.267003883533,3799.2737554791447,5424.991934260133,1.3424892561828434,1.6678937063068247,0.6500000000000001,,,binary
Ce0.303Sr0.697,Ce,Sr,0.3030221163541571,0.6969778836458429,1011.6924195166938,2030.0279432741881,4072.1426536078106,1.0015137597802066,1.9545466825468765,0.17000000000000015,,,binary
Hf0.375Pr0.625,Hf,Pr,0.37548504337188293,0.6245149566281171,2000.790367940389,3528.0862321854474,7449.9952227915355,1.1938324573732202,1.7373544869884352,0.17000000000000015,,,binary
Tm0.689Pt0.311,Tm,Pt,0.6886259444836885,0.3113740555163115,1863.9878030320817,2811.2324528326253,13269.50264165433,1.570715277181801,1.6254503777934755,1.0299999999999998,,,binary
Dy0.698Ni0.302,Dy,Ni,0.6982513560639101,0.3017486439360899,1618.855640620445,2885.3286947180704,8976.941396856519,1.4282065643159019,1.6293005424255642,0.69,,,binary
Mg0.859Er0.141,Mg,Er,0.8593961427318758,0.1406038572681242,1155.481329582084,1297.645531418772,2666.209898489015,1.3001577299912312,1.535150964317031,0.07000000000000006,,,binary
Co0.507Tc0.493,Co,Tc,0.5066748344931656,0.49332516550683436,2139.3652488574503,3505.7239544745094,11945.43408431979,1.8898665033101367,1.35,0.020000000000000018,,,binary
W0.591Ce0.409,W,Ce,0.5912202936235511,0.4087797063764489,2454.586158507911,4910.368241453088,14900.160985417459,1.8531131640932035,1.5543898531882245,1.2399999999999998,,,binary
Ho0.142Tm0.858,Ho,Tm,0.14164223766766793,0.8583577623323321,1699.3099849966434,1901.4317736120797,8850.140938291433,1.2471671552466466,1.75,0.020000000000000018,,,binary
Ir0.104Gd0.896,Ir,Gd,0.10423250677805758,0.8957674932219424,1880.8331959223801,3522.9611429197016,8639.433019114334,1.3042325067780574,1.753095371949874,1.0000000000000002,,,binary
Fe0.477Zn0.523,Fe,Zn,0.477334928070675,0.522665071929325,1340.0262634984856,2042.8292253707525,7108.234826231466,1.7359202870527215,1.3738667464035337,0.18000000000000016,,,binary
Sm0.171Hg0.829,Sm,Hg,0.17051255145120886,0.8294874485487911,430.03740810908715,944.0149079373779,1552.392982010441,1.8584745822954964,1.559679393007923,0.8300000000000001,,,binary
Pd0.397Ru0.603,Pd,Ru,0.3966681008341296,0.6033318991658704,2488.115512920261,4410.541692406559,11613.440293460566,2.2,1.339666810083413,0.0,,,binary
Sm0.680V0.320,Sm,V,0.6795957707424521,0.32040422925754786,1447.975054056597,2606.0717568865775,7029.271406346826,1.3173859454584718,1.689797885371226,0.45999999999999996,,,binary
Pt0.625Eu0.375,Pt,Eu,0.6249401838839385,0.37505981611606154,1505.8967582025375,3179.385259878744,15751.640624802842,1.8749353985946535,1.537529908058031,1.0799999999999998,,,binary
Cd0.871Tm0.129,Cd,Tm,0.8708238577692066,0.12917614223079343,779.4156890276953,1252.9676068167705,8990.8836835673,1.6331624974184507,1.5758352284461588,0.43999999999999995,,,binary
Cr0.612Nb0.388,Cr,Nb,0.6122330516241096,0.38776694837589043,2279.293004418883,3555.2391060973077,6771.97277535619,1.6367339830974466,1.4193883474187945,0.05999999999999983,,,binary
Mg0.261Al0.739,Mg,Al,0.26136579424481166,0.7386342057551883,1096.8484920515568,2421.761261844275,2393.509348812939,1.5315902617265567,1.315341448561203,0.30000000000000004,,,binary
Dy0.329Y0.671,Dy,Y,0.32880520936695634,0.6711947906330437,1596.416645562159,4341.399266845269,5189.249778453947,1.22,1.7835597395316523,0.0,,,binary
V0.508Sm0.492,V,Sm,0.5084382803190567,0.4915617196809433,1695.1192545013776,3011.7756783406635,7124.415025132842,1.403881608946766,1.5957808598404717,0.45999999999999996,,,binary
Er0.592Ru0.408,Er,Ru,0.5921519885628396,0.40784801143716043,2334.3876056036165,4326.14380938471,10940.618614159966,1.631534090979674,1.5664683948532776,0.9600000000000002,,,binary
Ho0.388V0.612,Ho,V,0.3877919986203707,0.6122080013796293,1796.737330210846,3325.8764457127722,7371.35926486906,1.4748832005518517,1.5051167994481482,0.3999999999999999,,,binary
Tb0.881Al0.119,Tb,Al,0.8805167207565592,0.11948327924344082,1865.6219888112587,2940.27085194788,8468.668123297748,1.1609364724141549,1.6902583603782795,0.51,,,binary
Fe0.724Ag0.276,Fe,Ag,0.7237383031811339,0.27626169681886614,1681.5731500511206,3187.290075741422,8509.0187947195,1.8576261696818868,1.4552523393637733,0.09999999999999987,,,binary
Re0.416Dy0.584,Re,Dy,0.416114493640965,0.583885506359035,2216.3764371073125,4408.299486739802,14638.689200291003,1.5029578556758563,1.583554202543614,0.6799999999999999,,,binary
Nd0.514Mo0.486,Nd,Mo,0.5141941607914359,0.4858058392085641,2275.3890542558906,4115.172805064179,7981.319174175998,1.6355219559927354,1.6556776643165745,1.0200000000000002,,,binary
Lu0.155Tm0.845,Lu,Tm,0.1548937375496472,0.8451062624503528,1548.6026783448551,2648.4805568398733,9800.066337076532,1.2530978747509929,1.75,0.020000000000000018,,,binary
Fe0.328Ce0.672,Fe,Ce,0.32759502962910353,0.6724049703708965,1184.7500724705872,3282.6703242236213,6746.86555857671,1.3525924710366637,1.7025822366669034,0.71,,,binary
Ce0.378Nd0.622,Ce,Nd,0.37847619859859394,0.6215238014014061,1030.8390514009075,3187.553232807392,5991.747817943862,1.1324304760280282,1.85,0.019999999999999796,,,binary
Ag0.585Ru0.415,Ag,Ru,0.5850907263938018,0.4149092736061982,1729.794502852338,3019.0360975274825,9436.390099574772,2.0420255038736737,1.4755272179181407,0.27000000000000024,,,binary
Mo0.844Ca0.156,Mo,Ca,0.8437710726496962,0.1562289273503038,3147.2211082618,4972.6077248594665,8221.538285705066,1.9787744442736477,1.5046801245726062,1.1600000000000001,,,binary
Pr0.309Al0.691,Pr,Al,0.3088860045375513,0.6911139954624488,1046.0082868337297,3156.6493400083395,4383.560480459207,1.4617347178219755,1.435331602722531,0.4800000000000002,,,binary
Au0.185Sc0.815,Au,Sc,0.18517196511406128,0.8148280348859387,1584.46462018243,3447.2209978169035,5677.004268418768,1.5785029188345923,1.5537070087214848,1.18,,,binary
Mn0.335Sc0.665,Mn,Sc,0.3354014595744961,0.6645985404255039,1485.9486102137284,3051.0986522511425,5068.73256913698,1.4237262773191544,1.5329197080851007,0.18999999999999995,,,binary
Ni0.865Sc0.135,Ni,Sc,0.8653674796682201,0.13463252033177986,2189.7654510590983,2793.9336642547223,8677.435395671762,1.835952113817521,1.383658130082945,0.5499999999999998,,,binary
La0.300Pr0.700,La,Pr,0.30011319335813436,0.6998868066418656,1154.178791989245,3900.3628164790616,5537.139898225509,1.1209966041992558,1.8800113193358134,0.029999999999999805,,,binary
Mg0.551Ir0.449,Mg,Ir,0.5505348830439442,0.44946511695605584,1519.6041148652162,2641.157192577331,11225.158477427973,1.71002395409089,1.4325802324565917,0.8900000000000001,,,binary
Rh0.869W0.131,Rh,W,0.8689909802412915,0.1310090197587085,2272.35590443526,4489.249164238911,14710.827205077076,2.2904807215806966,1.35,0.08000000000000007,,,binary
Ca0.469Ho0.531,Ca,Ho,0.4685763531716097,0.5314236468283903,1530.5273106458287,2804.589002788695,5624.717534093628,1.1222274387705298,1.7734288176585804,0.22999999999999998,,,binary
Nd0.486Ti0.514,Nd,Ti,0.48557612965266883,0.5144238703473312,1430.1430230913911,3942.179470778448,5280.302477276082,1.3457695481389322,1.618509258343701,0.40000000000000013,,,binary
Pd0.406Mn0.594,Pd,Mn,0.4061385967353689,0.5938614032646311,1794.2370154436037,3125.298289811685,9744.743394199972,1.8139900878779898,1.4,0.6500000000000001,,,binary
Ru0.661Ho0.339,Ru,Ho,0.6609408809538492,0.3390591190461508,1965.2388795230222,3576.5401522999437,12633.763889861597,1.8711126545252337,1.452576603570768,0.9700000000000002,,,binary
Ta0.864Au0.136,Ta,Au,0.8643565496986881,0.13564345030131186,2973.9712404042793,5420.850832969196,18300.174130135933,1.6410691883133643,1.4364356549698687,1.04,,,binary
Y0.108La0.892,Y,La,0.10777855337153995,0.89222144662846,1345.9330702370614,3832.509791841938,5841.095942549835,1.112933426404585,1.933833216994269,0.11999999999999988,,,binary
Pd0.330Rh0.670,Pd,Rh,0.32983166630869765,0.6701683336913024,2036.388826450292,4046.264641165706,12990.5595753773,2.2536134666953043,1.366491583315435,0.07999999999999963,,,binary
Pt0.699Ho0.301,Pt,Ho,0.6990305055443924,0.3009694944556076,1898.7372440053327,4172.890385556819,17165.1951580431,1.9639820308216118,1.470387797782243,1.0499999999999998,,,binary
W0.544Mn0.456,W,Mn,0.5436412032329812,0.45635879676701885,2471.8472678869634,3912.1734572287405,12516.179198885391,1.9903493746187146,1.372817939838351,0.8099999999999998,,,binary
Nb0.351Sr0.649,Nb,Sr,0.35109822364770127,0.6489017763522987,1602.0046740590278,3185.2014509206097,4335.878928027603,1.1782138453710058,1.8068959769937643,0.6500000000000001,,,binary
Tc0.315Pr0.685,Tc,Pr,0.31526062597503923,0.6847393740249608,1623.2773570105269,3616.2154377966863,7959.437755863533,1.3727506820007802,1.6923696870124805,0.77,,,binary
Lu0.844Ho0.156,Lu,Ho,0.8442042106981722,0.1557957893018278,1609.053499929931,3490.042751335444,9490.568809397775,1.263768168427927,1.75,0.040000000000000036,,,binary
Mo0.690Ba0.310,Mo,Ba,0.689689798353115,0.31031020164688505,2432.3315054509794,4143.241247240454,7199.0110558172655,1.7659060439084562,1.6672171411528194,1.27,,,binary
Rh0.294Lu0.706,Rh,Lu,0.293645214275971,0.706354785724029,2235.2586011540066,3840.1338213667927,10817.558755660812,1.5665816664187306,1.6325419142896116,1.0099999999999998,,,binary
Pd0.283Tc0.717,Pd,Tc,0.283366025702754,0.7166339742972461,2257.3531343583218,3953.2013810722474,11901.90096222557,1.9850098077108262,1.3641683012851378,0.30000000000000027,,,binary
Rh0.385Eu0.615,Rh,Eu,0.38482189867493843,0.6151781013250616,1610.0218067504652,2174.1102140978587,7585.100605347657,1.6156076505689334,1.6575890506625308,1.0799999999999998,,,binary
Co0.836Ni0.164,Co,Ni,0.8361505036263917,0.16384949637360835,1716.5384875085115,3279.621938078319,9963.514009972003,1.884915484891208,1.35,0.030000000000000027,,,binary
Ho0.494Dy0.506,Ho,Dy,0.49413189061776985,0.5058681093822301,1574.9714198030688,2770.41631468725,8227.120732738835,1.2249413189061777,1.75,0.010000000000000009,,,binary
Al0.866La0.134,Al,La,0.8663944723741003,0.13360552762589972,890.5451783603921,2817.713075421315,3404.0093400880487,1.5418611809107914,1.3435238693381297,0.51,,,binary
Sr0.597Os0.403,Sr,Os,0.5965339798654133,0.40346602013458666,1753.6444693544333,3253.0418468931666,8871.704676425676,1.4543325251682333,1.7175737859057894,1.2500000000000002,,,binary
Ba0.795Pr0.205,Ba,Pr,0.7950150684996428,0.20498493150035724,984.1096968282692,2353.878317181582,4846.93805232568,0.9391963835600858,2.088504520549893,0.23999999999999988,,,binary
Ba0.888Nb0.112,Ba,Nb,0.8875157461420436,0.11248425385795635,1163.957800639658,1923.3915262198402,3263.7894934329443,0.9698638202391491,2.0712610222994305,0.7100000000000001,,,binary
Sc0.418Ag0.582,Sc,Ag,0.4183035982971953,0.5816964017028047,1482.1837690539228,2881.0304098888278,7626.615259976985,1.6915669489705987,1.6,0.5699999999999998,,,binary
Pr0.143Cu0.857,Pr,Cu,0.14331853703102732,0.8566814629689727,1358.6976627937565,3629.9943125735576,8129.5503874237265,1.789644726486109,1.4216592685155138,0.77,,,binary
Hg0.852Sr0.148,Hg,Sr,0.8517235370920178,0.14827646290798224,387.0592876244243,654.2769972625504,354.67710947272235,1.8443097139466187,1.5741382314539911,1.05,,,binary
V0.378Sc0.622,V,Sc,0.37783116932938643,0.6221688306706136,1600.4286752571127,3229.7322244040884,4146.451265233347,1.4620144157189343,1.5055422076676535,0.2699999999999998,,,binary
Ho0.466Nb0.534,Ho,Nb,0.46575682745282165,0.5342431725471783,2302.7695890890773,4099.521366330523,7870.161759996561,1.4276699738424559,1.5897270482358463,0.3700000000000001,,,binary
Ni0.515Er0.485,Ni,Er,0.5145641115908062,0.4854358884091938,1730.365249801113,2690.3399909964346,10209.519053661108,1.58475795476584,1.5441743553636775,0.6699999999999999,,,binary
Ta0.107Er0.893,Ta,Er,0.10673488385570035,0.8932651161442997,1901.2858537894645,3250.3692875827296,11444.63178302247,1.267751069802482,1.71797953484329,0.26,,,binary
Ho0.404Tc0.596,Ho,Tc,0.40354240286951193,0.5964575971304881,1882.1590008672495,3473.9128740930687,9267.425886003508,1.629626590077427,1.511416961147805,0.6699999999999999,,,binary
Co0.389Ta0.611,Co,Ta,0.38928186066614445,0.6107181393338555,2679.204614565151,4950.56822489426,14641.469996302114,1.647927107053135,1.4110718139333855,0.3799999999999999,,,binary
Pd0.539Nb0.461,Pd,Nb,0.5388507203033509,0.4611492796966491,2832.7302553198906,3144.643092780158,11065.60241805282,1.9233104321820105,1.4230574639848323,0.6000000000000001,,,binary
Rh0.477Ag0.523,Rh,Ag,0.4770762917907644,0.5229237082092356,1617.5577158414717,2980.677928135108,10716.975565985866,2.096976702126767,1.480730927052309,0.34999999999999987,,,binary
Eu0.393W0.607,Eu,W,0.3927393208975415,0.6072606791024585,2432.312057428095,4961.303011609897,14907.39235175532,1.9044223877588518,1.5463696604487707,1.16,,,binary
Ba0.268Hg0.732,Ba,Hg,0.26842598568852505,0.731574014311475,440.8686801477109,1176.0114617673544,799.6684802508516,1.7020471558857373,1.6744768906975414,1.1099999999999999,,,binary
Er0.392Os0.608,Er,Os,0.39206238898233225,0.6079376110176677,2354.873653248794,3476.438286942957,16089.926353511808,1.823620106576961,1.4764280750420495,0.9600000000000002,,,binary
Pt0.461Ag0.539,Pt,Ag,0.4605831931822849,0.5394168068177151,1632.3513995936453,3233.8743652252083,15601.752949162254,2.0912041176138,1.4848542017044288,0.34999999999999987,,,binary
Pr0.883Cu0.117,Pr,Cu,0.8834179614537521,0.11658203854624793,1052.5410520815176,3803.4458617581067,7071.289188317663,1.2197681696806109,1.791708980726876,0.77,,,binary
Ho0.751Ru0.249,Ho,Ru,0.7513525313131197,0.24864746868688026,2094.093206157504,2714.7619954969196,9985.559791215657,1.471188044626274,1.6381086390909039,0.9700000000000002,,,binary
Yb0.743Ag0.257,Yb,Ag,0.743270064805777,0.25672993519422305,997.9069461622723,1648.780670537745,7981.236570957876,1.3130858462112052,1.7114905097208666,0.8299999999999998,,,binary