formula,element_1,element_2,composition_1,composition_2,melting_point,boiling_point,density,electronegativity,atomic_radius,electronegativity_difference,element_3,composition_3,alloy_type
Nb0.421Ni0.579,Nb,Ni,0.4206220114246023,0.5793779885753977,2284.1760385510865,4159.855035176867,9484.562278202384,1.7796071764583732,1.3920622011424602,0.30999999999999983,,,binary
Ca0.769Ag0.231,Ca,Ag,0.7685666762931078,0.23143332370689218,1179.819964080682,1811.9528321011471,3922.889434780494,1.2152329910474098,1.7537133352586216,0.9299999999999999,,,binary
Er0.740Sr0.260,Er,Sr,0.7399192775591601,0.2600807224408399,1388.3450595600846,2506.428308613203,6679.372161820684,1.1645765904921563,1.81502018061021,0.29000000000000004,,,binary
Tb0.190Zr0.810,Tb,Zr,0.1904452451021169,0.8095547548978831,2252.539744187639,4877.70974172468,7169.416006549116,1.286197593626513,1.5880890490204234,0.22999999999999998,,,binary
Er0.147Yb0.853,Er,Yb,0.1469171165321419,0.8530828834678581,1329.2699549358674,1563.8795993688277,7178.5152782387395,1.1205683963145,1.75,0.1399999999999999,,,binary
Zr0.433Co0.567,Zr,Co,0.4328221733047173,0.5671778266952827,1899.7347257986953,4166.767348156289,7775.352586900695,1.6419478046824056,1.4365644346609434,0.5499999999999998,,,binary
Nd0.742Sr0.258,Nd,Sr,0.7418118272360767,0.25818817276392325,1185.755304914657,3087.888230427781,6224.8180659635445,1.0909442471748545,1.8887282259145886,0.18999999999999995,,,binary
Ho0.245Mg0.755,Ho,Mg,0.2450084484298417,0.7549915515701583,1046.7334474147199,1751.6000158929116,3100.060646944725,1.2903993241256129,1.5612521121074603,0.08000000000000007,,,binary
Ir0.589Re0.411,Ir,Re,0.5890867354203237,0.41091326457967625,2276.7316164432086,5284.80375947494,23318.59822274721,2.076726020626097,1.35,0.30000000000000027,,,binary
Ho0.879Yb0.121,Ho,Yb,0.8787556641802955,0.12124433581970451,1700.1857315760299,2260.743103385647,8226.12409666112,1.2142382363434383,1.75,0.1299999999999999,,,binary
Cu0.836Sr0.164,Cu,Sr,0.8363183885104822,0.16368161148951776,1017.3683195277298,3350.778155033543,7033.497522742432,1.7445024690849582,1.4563930474681865,0.95,,,binary
Ni0.453Au0.547,Ni,Au,0.45255030421002107,0.5474496957899789,1704.2119813090785,3453.197884340196,13282.496743833613,2.254893308347687,1.35,0.6300000000000001,,,binary
Mn0.624Pd0.376,Mn,Pd,0.6239788550987121,0.3760211449012879,1449.9752821647494,2766.831025418955,8406.76389238866,1.7944137441858374,1.4,0.6500000000000001,,,binary
Al0.795Tm0.205,Al,Tm,0.7946658174868161,0.20533418251318392,1126.522247919986,2546.0005101890706,3336.453225235337,1.5360796942952537,1.352667091256592,0.3600000000000001,,,binary
Y0.561Lu0.439,Y,Lu,0.5613192064987036,0.4386807935012964,1440.6839434862627,3720.4195950244116,6443.886141613608,1.2419340396750647,1.7780659603249351,0.050000000000000044,,,binary
Pr0.882Ru0.118,Pr,Ru,0.8823164460406389,0.11768355395936114,1296.7200105196043,3919.186831024613,8172.620789207277,1.2559214027365164,1.7852740453223515,1.0700000000000003,,,binary
Dy0.515W0.485,Dy,W,0.5152797432130763,0.48472025678692365,2584.3040528509973,4142.283680825744,14424.069613635069,1.7725810927370929,1.5561118972852306,1.14,,,binary
Er0.176Eu0.824,Er,Eu,0.1761937107613558,0.8238062892386442,1056.929388571002,2081.7158818830617,6243.986049766627,1.207047748430454,1.8323806289238644,0.040000000000000036,,,binary
Dy0.299Yb0.701,Dy,Yb,0.2988615958805661,0.701138404119434,1357.7096444354042,1514.8739163753585,6616.758764698329,1.135863391505668,1.75,0.11999999999999988,,,binary
Re0.641Dy0.359,Re,Dy,0.6410364546859529,0.35896354531404706,2572.698146675133,4829.462360452585,17339.431403035524,1.655904789186448,1.493585418125619,0.6799999999999999,,,binary
Ir0.771Zn0.229,Ir,Zn,0.7712264169838299,0.22877358301617012,2610.737428730133,3702.674994679095,18151.272587227264,2.0741745293411062,1.35,0.5500000000000003,,,binary
Ce0.144Eu0.856,Ce,Eu,0.1436528921821407,0.8563471078178593,1220.3837387143521,2124.5089382461265,6142.648592617112,1.1885077686254286,1.85,0.07999999999999985,,,binary
Tb0.504Zr0.496,Tb,Zr,0.5044540575077866,0.4955459424922134,1930.4508087136496,3614.306330551147,6389.744315504394,1.2139755667732093,1.6508908115015575,0.22999999999999998,,,binary
Sr0.796Ba0.204,Sr,Ba,0.7955325076902143,0.20446749230978567,878.4540083275881,1870.955677127192,3143.9189459414843,0.9377319504614128,2.030670123846468,0.05999999999999994,,,binary
Mn0.357Ba0.643,Mn,Ba,0.3565070524268855,0.6434929475731145,1404.1815968701699,2397.5112639714234,5494.090089200454,1.1252946546017446,1.882619710679836,0.66,,,binary
W0.140Ag0.860,W,Ag,0.14028057162123517,0.8597194283787648,1488.385703721891,2574.3425755903986,12715.053689563274,1.990320645797131,1.5649298570946912,0.42999999999999994,,,binary
Ru0.615Ce0.385,Ru,Ce,0.6146538518586014,0.38534614814139856,2098.071188255751,4162.828330951726,10575.225569418652,1.7838261600072898,1.5119403814777694,1.08,,,binary
Pt0.163Rh0.837,Pt,Rh,0.16306447660383333,0.8369355233961666,2276.3703674028097,4501.338395964384,15653.58168161463,2.28,1.35,0.0,,,binary
Mg0.458Pr0.542,Mg,Pr,0.45847886853229913,0.5415211314677009,1135.9642053868708,2770.393849040029,4618.34044337988,1.2125261963358138,1.6895323960136954,0.18000000000000016,,,binary
Ba0.353Mg0.647,Ba,Mg,0.3528492219371011,0.6471507780628989,906.3504537876654,1762.1645123388791,2033.6949384973407,1.1618033267864176,1.7293519942591158,0.42000000000000004,,,binary
Ba0.623Lu0.377,Ba,Lu,0.6226984025106974,0.3773015974893026,1491.1743672864018,2395.9932440271327,6067.283095988887,1.0333746070459349,1.999079361004279,0.38,,,binary
Co0.430Pt0.570,Co,Pt,0.4298708381404396,0.5701291618595604,1761.2763982656384,3917.3926490335098,15796.103425791332,2.108051664743824,1.35,0.3999999999999999,,,binary
Ce0.761Al0.239,Ce,Al,0.7607270067387554,0.23927299326124463,870.6240909562521,3576.145909372183,5403.1290469961905,1.2372437666980098,1.7064362040432535,0.49,,,binary
Sm0.610Eu0.390,Sm,Eu,0.6100304979359981,0.38996950206400194,1359.1286758818148,1968.6293618139507,6788.786142587284,1.18169908506192,1.85,0.030000000000000027,,,binary
Sc0.265Ce0.735,Sc,Ce,0.26548099907991873,0.7345190009200813,1144.8159202482393,3286.482865818317,5443.974841688941,1.1837154397791805,1.7836297502300202,0.24,,,binary
Dy0.860Ca0.140,Dy,Ca,0.8602841039946926,0.13971589600530743,1738.2237705007567,3139.6819964719384,6963.1046015938255,1.1892625028788322,1.7569857948002654,0.21999999999999997,,,binary
Os0.753Cr0.247,Os,Cr,0.7532709492618925,0.24672905073810747,3354.272422962114,3686.051762424934,16548.84931242598,2.066766312601422,1.3246729050738109,0.5400000000000003,,,binary
Ca0.548W0.452,Ca,W,0.5481206760848546,0.4518793239151454,2062.165800410199,3110.1573539978544,8036.212026722357,1.6145558805245979,1.5966543042381847,1.3599999999999999,,,binary
Eu0.479Sm0.521,Eu,Sm,0.4785069448748711,0.5214930551251289,1277.9741231902967,1902.3187766552294,6584.517144099844,1.184355208346246,1.85,0.030000000000000027,,,binary
Dy0.673Os0.327,Dy,Os,0.6727308002265242,0.3272691997734758,2364.8819242054506,3736.862379273191,14017.172918367318,1.5407238157780063,1.6027288601019358,0.9800000000000002,,,binary
Ni0.707Co0.293,Ni,Co,0.7074559608632937,0.29254403913670635,1727.605217479333,2811.4333760573627,9847.712954175578,1.9012236788258987,1.35,0.030000000000000027,,,binary
Ru0.373Al0.627,Ru,Al,0.373085691661471,0.626914308338529,1466.065847325302,3082.3529831910964,6195.512692399676,1.830120558080268,1.2686542845830737,0.5900000000000001,,,binary
Gd0.538Cd0.462,Gd,Cd,0.5381524653553074,0.46184753464469264,1024.499419909814,2277.041404476481,8530.662450990045,1.4263052919758992,1.6845381163388269,0.49,,,binary
Os0.185Er0.815,Os,Er,0.18505778339968978,0.8149422166003102,2152.79337550491,3220.132808987923,11008.029349464361,1.4176554720637022,1.6667239974701396,0.9600000000000002,,,binary
Zr0.212Ba0.788,Zr,Ba,0.2123593498577991,0.7876406501422009,1372.7093645868247,2815.3238553916226,5007.880142481472,0.9834381139374315,2.02258439008532,0.44000000000000006,,,binary
Tm0.677Lu0.323,Tm,Lu,0.6772472763610528,0.32275272363894725,2071.157361946381,2999.639105760769,8171.9063459673525,1.256455054472779,1.75,0.020000000000000018,,,binary
Co0.589Pd0.411,Co,Pd,0.588681412910947,0.411318587089053,1929.6369020366928,3197.7346548594946,9623.397887846731,2.011621947868497,1.3705659293544525,0.3200000000000003,,,binary
Mo0.844Ni0.156,Mo,Ni,0.8441730073225163,0.15582699267748368,2759.5933363830195,5081.908353765491,10570.35273093171,2.121043251830629,1.4344173007322516,0.2500000000000002,,,binary
Pt0.466Tc0.534,Pt,Tc,0.4656368066343911,0.5343631933656089,2051.4800759399623,4654.8361473755685,14947.519328503058,2.076941986521068,1.35,0.3799999999999999,,,binary
Mo0.370Tm0.630,Mo,Tm,0.370346838878189,0.629653161121811,2265.2776078366082,3121.21842954352,9464.384074134981,1.587015623379152,1.6388959483365433,0.9100000000000001,,,binary
Au0.841V0.159,Au,V,0.8413012244298486,0.15869877557015144,1584.292266592501,2881.87064182881,20553.814242637367,2.3955841142311622,1.35,0.9100000000000001,,,binary
Ho0.199Nd0.801,Ho,Nd,0.19857535226431589,0.8014246477356841,1131.7796490549172,3100.4579752657914,7462.568146740989,1.1578717817037885,1.8301424647735685,0.09000000000000008,,,binary
Mg0.627Ca0.373,Mg,Ca,0.6267653560001621,0.37323464399983786,1052.780505975904,1494.8820688419632,1658.2600824801116,1.1942972603600504,1.6119703931999514,0.31000000000000005,,,binary
Sc0.871Cu0.129,Sc,Cu,0.8710838049580374,0.1289161950419626,1827.2436816013917,3043.5150626650575,4272.576975559615,1.42961474532266,1.5677709512395095,0.5399999999999998,,,binary
Al0.689Y0.311,Al,Y,0.688971144250462,0.311028855749538,1303.6212087888248,3311.9825237318128,2937.031752788542,1.4886987462576802,1.4210658706622459,0.3900000000000001,,,binary
Ce0.771Hg0.229,Ce,Hg,0.7710528885431333,0.22894711145686675,870.1679643576923,2856.943777519696,4638.926544044643,1.3214734580820429,1.7698685109900967,0.8799999999999999,,,binary
Sr0.725Sc0.275,Sr,Sc,0.7248651976654668,0.27513480233453325,1305.5909870969122,1942.995272282254,2906.445578392089,1.0628052689571585,1.8899460790661866,0.41000000000000014,,,binary
Nb0.563Er0.437,Nb,Er,0.5628435085633413,0.4371564914366587,2085.624311020346,4918.357617998703,7999.237384385752,1.4426236630828029,1.5811469474309976,0.3600000000000001,,,binary
Yb0.183Cu0.817,Yb,Cu,0.1828431688988541,0.8171568311011459,1338.8205664520729,3111.830985999121,8005.826649920697,1.7537254648809166,1.4231372675595417,0.7999999999999998,,,binary
Dy0.585Sm0.415,Dy,Sm,0.5849286191624156,0.41507138083758444,1672.3123357283048,2212.7765217644505,9223.242977002681,1.1992464309581208,1.7915071380837586,0.050000000000000044,,,binary
Ta0.805Sc0.195,Ta,Sc,0.8051124536076941,0.19488754639230588,3006.5940804061047,4907.578223554939,13568.400271780569,1.4727157435050773,1.4792331319588459,0.1399999999999999,,,binary
Au0.833Sm0.167,Au,Sm,0.8327281933576794,0.16727180664232055,1446.895957710947,2780.2811593732013,16005.094746898496,2.310837624900021,1.4336359033211603,1.37,,,binary
Rh0.418Ag0.582,Rh,Ag,0.41829599716421084,0.5817040028357892,1617.4476813839638,2714.185056921474,13368.869854826153,2.076403599007474,1.4954260007089473,0.34999999999999987,,,binary
W0.462Cd0.538,W,Cd,0.4622765648650934,0.5377234351349066,1912.7936113341138,3523.9367505712103,13833.966307278652,1.9997252984596126,1.4575446870269815,0.6699999999999999,,,binary
Cu0.582Au0.418,Cu,Au,0.5820195597411053,0.4179804402588947,1216.3905386834972,3168.4355533525913,14298.117793313719,2.1675074817656927,1.35,0.6400000000000001,,,binary
Lu0.339Sc0.661,Lu,Sc,0.3391305079643394,0.6608694920356606,1816.7841988989896,3690.349918818014,5852.511481891867,1.3294782542832095,1.6508695761946508,0.09000000000000008,,,binary
Er0.789Ce0.211,Er,Ce,0.7885660369033264,0.21143396309667362,1798.1350558814615,3095.8657146637406,7638.7068695945945,1.2146279244283993,1.7711433963096674,0.11999999999999988,,,binary
Tm0.848Lu0.152,Tm,Lu,0.8484096619700287,0.15159033802997135,1721.674690222416,2491.0529750028295,9912.857043063717,1.2530318067605994,1.75,0.020000000000000018,,,binary
Gd0.261Tc0.739,Gd,Tc,0.26071126586027554,0.7392887341397245,1729.8470684628494,4269.91098737124,10728.669253715698,1.7175021138978073,1.467320069637124,0.7,,,binary
Eu0.332Tm0.668,Eu,Tm,0.3324635963834005,0.6675364036165995,1535.135583101943,2351.25861781345,8301.516772399955,1.23337682018083,1.78324635963834,0.050000000000000044,,,binary
Re0.206Ho0.794,Re,Ho,0.20613738287291225,0.7938626171270877,2363.3629814133046,3508.4108859132243,12375.78805447853,1.368112046524851,1.667545046850835,0.6699999999999999,,,binary
Tm0.880Tb0.120,Tm,Tb,0.8801435944934276,0.1198564055065724,2088.8983167670017,2688.1291551521367,8185.3582601561575,1.2320215391740141,1.75,0.1499999999999999,,,binary
Nb0.534Sc0.466,Nb,Sc,0.5339931827444552,0.4660068172555448,2255.121601273935,3982.680337901831,6259.3073248287665,1.4881583638586693,1.5199010225883316,0.24,,,binary
Gd0.668Ta0.332,Gd,Ta,0.6682821817124203,0.33171781828757974,2298.184626155418,3898.44779072847,10876.486490072773,1.2995153454862738,1.6838987635993472,0.30000000000000004,,,binary
Re0.484Ce0.516,Re,Ce,0.4842959379125015,0.5157040620874985,1776.3255423741764,5395.890502953267,12931.107428534184,1.4977508315717512,1.6078520310437494,0.7799999999999998,,,binary
Pr0.668Dy0.332,Pr,Dy,0.6680989051906938,0.3319010948093062,1372.28083017512,3220.137808976411,8107.913589874438,1.1598710985328375,1.8168098905190695,0.09000000000000008,,,binary
Ho0.815Lu0.185,Ho,Lu,0.8150928011023361,0.18490719889766394,1267.2723585236304,3113.925766628377,8893.298661233575,1.2373962879559066,1.75,0.040000000000000036,,,binary
La0.802Cd0.198,La,Cd,0.801981787963516,0.19801821203648395,1025.690570891743,3761.488262191655,6052.487786336947,1.2168307451015257,1.8707927151854062,0.5899999999999999,,,binary
Hg0.518Al0.482,Hg,Al,0.5181839889673618,0.48181601103263816,615.2652466004569,1731.1761061438938,1465.0146767944584,1.812091755697271,1.3795459972418405,0.3899999999999999,,,binary
Ti0.216Ir0.784,Ti,Ir,0.21626136930623643,0.7837386306937636,2395.1944575328657,4127.763415216589,20778.91103744934,2.057267496257884,1.360813068465312,0.6600000000000001,,,binary
Dy0.260Cr0.740,Dy,Cr,0.2599219338117734,0.7400780661882266,2137.2315614624517,2466.3148202907064,7101.90706504082,1.5456343491228195,1.4909726768341205,0.43999999999999995,,,binary
Zr0.647Cd0.353,Zr,Cd,0.6467122629318297,0.3532877370681703,1647.419813997339,3679.77433108685,6773.107121552355,1.4571835853445414,1.55,0.3599999999999999,,,binary
Zn0.652Cr0.348,Zn,Cr,0.6524758802912081,0.34752411970879193,857.062950448348,1886.8481673121635,6268.691027380001,1.6534752411970879,1.3673762059854395,0.010000000000000009,,,binary
Cd0.703Tc0.297,Cd,Tc,0.702875158436132,0.297124841563868,909.7646123825649,1490.4050733690513,10269.827613752917,1.7523962167284122,1.4905750316872264,0.20999999999999996,,,binary
V0.751Re0.249,V,Re,0.751220974043575,0.24877902595642498,2532.602085090381,4129.247005737781,11183.219313699545,1.6971703370082347,1.35,0.27,,,binary
Co0.794Eu0.206,Co,Eu,0.7944282989235283,0.2055717010764717,1734.3865709420281,3382.8984552714287,7013.5691298953525,1.740211243267999,1.4527858505382358,0.6799999999999999,,,binary
Lu0.792Ce0.208,Lu,Ce,0.7918731881636821,0.20812681183631787,1740.600588235877,3073.5297304910796,8974.296977663153,1.2387809782245525,1.770812681183632,0.1499999999999999,,,binary
Lu0.549Tb0.451,Lu,Tb,0.5490164422326486,0.45098355776735144,1746.9691162533509,3822.850749661565,9151.011108102719,1.1933327951795503,1.75,0.16999999999999993,,,binary
Rh0.727Sc0.273,Rh,Sc,0.7274457382967093,0.27255426170329067,2253.9784350138243,3994.7813435250455,11997.247543848734,2.0292500792329724,1.4181385654258227,0.9199999999999997,,,binary
Er0.654Cd0.346,Er,Cd,0.6543488601713989,0.3456511398286011,1340.8757153496726,2187.5500210065925,9141.770073660662,1.3955430129228703,1.68086977203428,0.44999999999999996,,,binary
Cr0.410Ir0.590,Cr,Ir,0.41004371891359226,0.5899562810864077,2308.4304783177377,4570.455551682084,15828.853449043589,1.9785763917866601,1.3705021859456796,0.5400000000000003,,,binary
Ho0.873Ta0.127,Ho,Ta,0.8726665708549296,0.1273334291450704,1822.8540628468156,3184.142232834412,10498.908614114123,1.264380025869169,1.7117999712564789,0.27,,,binary
Cr0.695Al0.305,Cr,Al,0.6949359729965991,0.30506402700340085,1771.3383636623228,2711.698947904079,6749.007689996678,1.6447467986498299,1.3542403959494898,0.04999999999999982,,,binary
Mo0.795Eu0.205,Mo,Eu,0.7950799690540128,0.2049200309459872,2311.3396276731623,4289.490831112549,9851.276935475827,1.9632767702918523,1.5319680123783948,0.9600000000000002,,,binary
Mg0.829Ru0.171,Mg,Ru,0.8291891016589908,0.17081089834100915,1013.1486931499454,1976.2431759360677,3179.0697174264146,1.4620216995234983,1.465837820331798,0.8900000000000001,,,binary
Tm0.394Tb0.606,Tm,Tb,0.3941928968137962,0.6058071031862038,1843.6637064115675,2709.788627052285,9252.881365955292,1.1591289345220694,1.75,0.1499999999999999,,,binary
Nd0.691La0.309,Nd,La,0.6907600259982762,0.30923997400172376,1404.7091264000642,3787.837783001844,6763.569675948398,1.127630401039931,1.8809239974001724,0.039999999999999813,,,binary
Mo0.871Yb0.129,Mo,Yb,0.8714318585008246,0.1285681414991754,2603.071014402012,4211.7183882974305,11245.069296378471,2.023717770010874,1.4885704424497526,1.06,,,binary
Cd0.242Mg0.758,Cd,Mg,0.24194071879061055,0.7580592812093895,784.4554752364465,1151.6053869171562,3637.204633493412,1.4019374731404322,1.5120970359395307,0.3799999999999999,,,binary
Ho0.250Mn0.750,Ho,Mn,0.24958126522585894,0.7504187347741411,1447.4547237609397,2261.1031539972164,6674.583495966945,1.4701339951277252,1.4873534428290507,0.32000000000000006,,,binary
Nb0.511Lu0.489,Nb,Lu,0.5110774822196591,0.4889225177803409,2233.317420281596,4324.795067754852,9414.856349487496,1.4386555691324876,1.5966767553341024,0.33000000000000007,,,binary
Ir0.443V0.557,Ir,V,0.4428062515205874,0.5571937484794126,2660.2916149520265,4349.824946921251,13177.597366456683,1.882399563366735,1.35,0.5700000000000003,,,binary
Ce0.204Pd0.796,Ce,Pd,0.20405322409229784,0.7959467759077021,1639.8020160946373,3486.2288281757737,12326.082140975466,1.9796225179803186,1.491823950841534,1.08,,,binary
Nd0.105Pd0.895,Nd,Pd,0.1045161088142561,0.8954838911857439,1794.936502417758,3097.8362277647916,10337.58889801117,2.0892129246568887,1.4470322489664151,1.0600000000000003,,,binary
Ca0.850Tm0.150,Ca,Tm,0.8499955603766781,0.15000443962332188,1044.0725935034652,1948.623013092264,2872.645232128999,1.0375011099058304,1.7924997780188339,0.25,,,binary
V0.843Zn0.157,V,Zn,0.8429025907673241,0.1570974092326759,2061.39549934612,3244.962817084558,7154.213119014035,1.6331419481846532,1.35,0.020000000000000018,,,binary
Sm0.719Cr0.281,Sm,Cr,0.7189287598871104,0.28107124011288964,1503.218553872121,2541.5894180158616,7264.876121808552,1.3077249076553157,1.7235179419491997,0.49,,,binary
Gd0.775Eu0.225,Gd,Eu,0.7745119849556101,0.22548801504438987,1385.655972676736,3320.211835751384,7600.989654422051,1.2,1.8112744007522195,0.0,,,binary
Hf0.732Ba0.268,Hf,Ba,0.7319265459339439,0.2680734540660561,2177.3270966088344,4177.0317877116,10642.399425102565,1.190089883832917,1.7108440724396337,0.41000000000000003,,,binary
Ce0.158Re0.842,Ce,Re,0.15830463638324402,0.841695363616756,3816.230081694413,6168.1520242968445,20106.733272266505,1.7765223836210697,1.4291523181916221,0.7799999999999998,,,binary
Tm0.520Ta0.480,Tm,Ta,0.5203160537479044,0.47968394625209565,2552.313935921755,4299.099822024822,13501.533005402187,1.3699209865630237,1.6060948161243713,0.25,,,binary
Nb0.155Y0.845,Nb,Y,0.15454117528354072,0.8454588247164593,1951.068020452738,3710.432232996571,5063.998929131374,1.2787256466077455,1.7459105886507607,0.3800000000000001,,,binary
Sc0.433Zr0.567,Sc,Zr,0.43274499501633734,0.5672550049836627,1360.5318312651675,4082.908518928212,4741.6289269160925,1.3429823498504903,1.5716372497508169,0.030000000000000027,,,binary