formula,element_1,element_2,composition_1,composition_2,melting_point,boiling_point,density,electronegativity,atomic_radius,electronegativity_difference,element_3,composition_3,alloy_type
La0.174Pt0.826,La,Pt,0.17355644315125318,0.8264435568487468,2195.8310520810137,4044.195479171484,16297.221482277662,2.075203397081521,1.4541338658907519,1.1799999999999997,,,binary
Ru0.631Tc0.369,Ru,Tc,0.6306675811522215,0.36933241884777845,2528.9504814189295,3998.3306582906807,12619.07427942149,2.0892002743456666,1.318466620942389,0.30000000000000027,,,binary
W0.335Os0.665,W,Os,0.3348594857361631,0.6651405142638369,3536.2374288606825,5990.463219361038,19785.67271164018,2.2535775177177864,1.3167429742868082,0.1599999999999997,,,binary
Eu0.480Y0.520,Eu,Y,0.47988575098890707,0.5201142490110929,1468.0556307633383,2366.749671244684,5182.168669678599,1.2104022849802218,1.8239942875494455,0.020000000000000018,,,binary
Ce0.107Tb0.893,Ce,Tb,0.10704295703602994,0.89295704296397,1650.3571379393306,3691.2860249429755,8056.5284418038345,1.1021408591407207,1.760704295703603,0.020000000000000018,,,binary
Dy0.457Re0.543,Dy,Re,0.456533797027754,0.543466202972246,2756.6095577887368,5205.89118244635,14890.502430148967,1.5895570180211271,1.5326135188111016,0.6799999999999999,,,binary
Tb0.835Eu0.165,Tb,Eu,0.8348858393498164,0.16511416065018358,1562.8615042755418,2871.881263741567,7056.811936248174,1.1165114160650185,1.7665114160650184,0.09999999999999987,,,binary
Rh0.646V0.354,Rh,V,0.6460410886148223,0.35395891138517765,2239.5800942617648,4292.847147899139,9944.34284253443,2.0499267075996346,1.35,0.6499999999999999,,,binary
Ta0.833Ir0.167,Ta,Ir,0.8327459442389403,0.16725405576105967,3122.4006127307716,5332.551869300039,16709.490344384165,1.6170778390327418,1.433274594423894,0.7000000000000002,,,binary
Ni0.305Ir0.695,Ni,Ir,0.30527244532249753,0.6947275546775025,2502.0585224158012,3603.897758985091,20818.913135264684,2.1114709908564757,1.35,0.29000000000000026,,,binary
Yb0.120Cd0.880,Yb,Cd,0.1197645837744231,0.8802354162255769,610.8876574633406,1170.166037307477,7333.977856512982,1.6193388955730903,1.5739529167548847,0.5899999999999999,,,binary
Y0.511Os0.489,Y,Os,0.5114472496677442,0.48855275033225576,2704.8166216123323,4725.339011247366,13845.640615368464,1.6987816953256107,1.5557236248338722,0.9800000000000002,,,binary
Sc0.489Mg0.511,Sc,Mg,0.48944376733214656,0.5105562326678534,1223.9421735039682,2269.8978996524697,2070.5149902964067,1.3344721883666075,1.5489443767332147,0.050000000000000044,,,binary
Cd0.254Tb0.746,Cd,Tb,0.25400991034694165,0.7459900896530584,1331.6242306976237,3173.574197888315,8992.009740195424,1.2498658471046955,1.6991980179306116,0.5899999999999999,,,binary
Sc0.859Fe0.141,Sc,Fe,0.8585694557187344,0.14143054428126556,1816.3292499444426,2804.474477347596,3913.8012792133445,1.426472355812195,1.5717138911437472,0.47,,,binary
Zr0.527La0.473,Zr,La,0.5265646577318346,0.4734353422681654,1688.6043485299613,3254.2234230630943,6834.242231368068,1.2211098712783222,1.7393741369072662,0.22999999999999998,,,binary
Gd0.269Mn0.731,Gd,Mn,0.26862517994842006,0.7313748200515799,1533.0053313860208,2972.4531926310033,6754.929611928869,1.455981187018053,1.507450071979368,0.3500000000000001,,,binary
Gd0.792Tc0.208,Gd,Tc,0.7919606845701049,0.20803931542989507,1201.4413674272348,3838.3742805623756,8901.928306280259,1.3456275208009265,1.7063823080565474,0.7,,,binary
Hg0.264Co0.736,Hg,Co,0.2644636543855322,0.7355363456144678,1132.060722523092,2273.6857576327484,8349.914359591974,1.9117356385262638,1.3896695481578298,0.1200000000000001,,,binary
Er0.720Lu0.280,Er,Lu,0.7201653923704491,0.2798346076295509,1780.2967228244397,3530.948737773708,8678.8726432651,1.2483950382288866,1.75,0.030000000000000027,,,binary
Tb0.698Mn0.302,Tb,Mn,0.6975126605394097,0.30248733946059025,1262.171242224105,3095.7712990206132,7780.154211702404,1.2361193027572657,1.6441294311887935,0.44999999999999996,,,binary
Zn0.467Ti0.533,Zn,Ti,0.4673801882080334,0.5326198117919666,1303.2740947487935,2419.575258180127,5889.238917152598,1.5914118207028838,1.3766309905895984,0.10999999999999988,,,binary
W0.170V0.830,W,V,0.17001671834735888,0.8299832816526411,2403.4357620997234,3533.8806528029017,8749.693225930729,1.7541122043935717,1.35,0.73,,,binary
Cr0.735Nb0.265,Cr,Nb,0.7353718295807122,0.26462817041928777,1876.4710696572592,2776.4716422282086,8074.165098331418,1.6441223097748427,1.4132314085209643,0.05999999999999983,,,binary
Ce0.560Mn0.440,Ce,Mn,0.5599698354102333,0.44003016458976674,1330.6653693363337,3043.82979444953,6051.291573822951,1.3092129707735998,1.651986425934605,0.42999999999999994,,,binary
Ru0.426Pd0.574,Ru,Pd,0.42610622279663446,0.5738937772033655,2007.0591254429505,3643.473821434668,10228.518834716398,2.2,1.3573893777203365,0.0,,,binary
Mg0.424Gd0.576,Mg,Gd,0.42355841656342175,0.5764415834365783,1208.1903296403323,2778.2489972579438,6045.7410076532215,1.2465914258219764,1.6729324750309735,0.1100000000000001,,,binary
Ta0.412Ti0.588,Ta,Ti,0.4116014937955066,0.5883985062044934,2391.5489975857467,4790.495501198808,7685.748115448269,1.5235359402481796,1.4205800746897754,0.040000000000000036,,,binary
Ni0.105La0.895,Ni,La,0.1047191419686242,0.8952808580313758,1331.3918325135344,3388.4428617924555,6633.018374658288,1.1848225049945857,1.8871685148188255,0.8099999999999998,,,binary
Yb0.151Eu0.849,Yb,Eu,0.15059007260775914,0.8494099273922409,1071.4782909011706,1981.2475626307748,4967.6674382255605,1.184940992739224,1.8349409927392242,0.09999999999999987,,,binary
Lu0.136Nd0.864,Lu,Nd,0.13641348302890074,0.8635865169710992,1469.4447608880555,3318.7675211894616,7100.618636846245,1.157733752793757,1.8363586516971098,0.13000000000000012,,,binary
Mn0.842Re0.158,Mn,Re,0.842438200133067,0.15756179986693297,1791.1226254091368,2646.4984779680285,9591.420384472336,1.6051466299534267,1.392121910006653,0.34999999999999987,,,binary
Co0.730Cd0.270,Co,Cd,0.7295135181300559,0.27048648186994406,1441.4212002095649,2678.8515978184487,8907.016521710204,1.8286075684447107,1.4040972963739888,0.18999999999999995,,,binary
Hf0.169Sm0.831,Hf,Sm,0.16920417715023417,0.8307958228497658,1664.4526042873324,2785.245309043534,7482.528452320189,1.1919965430295303,1.7992387468549298,0.13000000000000012,,,binary
Mg0.416Ir0.584,Mg,Ir,0.4160906065828941,0.5839093934171059,2155.6900116188676,2919.1643063047964,14768.696555860613,1.8296793601412245,1.412413590987434,0.8900000000000001,,,binary
Dy0.479Ti0.521,Dy,Ti,0.47919014189436115,0.5208098581056388,1928.4716831841213,2600.497947705709,6504.768616415351,1.3866591545938043,1.5677165496630263,0.32000000000000006,,,binary
La0.209Ru0.791,La,Ru,0.20910516826363745,0.7908948317363625,2203.0406004703527,3955.9956101073662,12563.724310888118,1.969984314909999,1.4359183593713645,1.1,,,binary
Pt0.336La0.664,Pt,La,0.335982775450553,0.664017224549447,1381.4308859896464,3550.8290297820545,11251.454580208134,1.4964596750316526,1.7484103347296682,1.1799999999999997,,,binary
Gd0.338Zn0.662,Gd,Zn,0.33844520257287647,0.6615547974271235,1062.8757616150185,1945.0301678473309,8260.386035203275,1.4976996588422056,1.5023003411577944,0.44999999999999996,,,binary
Yb0.399Tb0.601,Yb,Tb,0.3985044119202592,0.6014955880797408,1492.234673336096,2105.9712562452237,7161.490389897378,1.1,1.75,0.0,,,binary
Al0.800Ce0.200,Al,Ce,0.7998135420982226,0.20018645790177736,906.4417080459065,3102.2647574411917,2580.2400417989697,1.5119086356281293,1.3701118747410663,0.49,,,binary
Zn0.133Ni0.867,Zn,Ni,0.13341851237434046,0.8665814876256596,1995.1283345840884,3073.3351264608523,8801.22376249447,1.8753111867826715,1.3500000000000003,0.26,,,binary
Pr0.415Sm0.585,Pr,Sm,0.41526536069602993,0.5847346393039701,1440.3074046709648,3324.762714707825,7671.394373033521,1.1533893855721586,1.85,0.040000000000000036,,,binary
Ce0.344Fe0.656,Ce,Fe,0.3437529218796067,0.6562470781203933,1703.1881453391918,3348.732723065791,7360.980421483602,1.5859354254654794,1.5546888148458229,0.71,,,binary
Lu0.375Yb0.625,Lu,Yb,0.3750813198789176,0.6249186801210824,1340.5959204492642,2106.718605795874,7261.233592425776,1.163763824379416,1.75,0.16999999999999993,,,binary
Au0.781Tb0.219,Au,Tb,0.7811670810732406,0.21883291892675938,1211.9229034728621,3186.4823761632424,14032.216948865049,2.2248805967454666,1.4375331675707037,1.44,,,binary
Zn0.247Zr0.753,Zn,Zr,0.24719417822830653,0.7528058217716935,1807.0505177046605,3802.4610434818524,6764.439336401402,1.409102137033058,1.5005611643543388,0.31999999999999984,,,binary
Eu0.255Pd0.745,Eu,Pd,0.2554609722770603,0.7445390277229397,1556.0822944142153,3751.9579118885454,11690.956633850868,1.9445390277229397,1.514957437524677,1.0000000000000002,,,binary
Nb0.740Dy0.260,Nb,Dy,0.7397280428844252,0.2602719571155748,2163.919206169566,4554.023282366897,8044.294237520162,1.5010966562960817,1.5280815871346725,0.3800000000000001,,,binary
Cr0.469Ce0.531,Cr,Ce,0.46901216295167514,0.5309878370483249,1428.285759994535,2866.3067822175503,7198.776671253426,1.3732665679939045,1.6389445266717462,0.5399999999999998,,,binary
Ce0.333Mn0.667,Ce,Mn,0.3325221340160683,0.6674778659839318,1275.749347695546,3033.6417284693384,7926.847024677032,1.4070154823730907,1.5496349603072308,0.42999999999999994,,,binary
Mn0.179Pd0.821,Mn,Pd,0.17856192110429758,0.8214380788957024,2016.4419711527994,2812.833574088705,11742.892782802339,2.083934751282207,1.4,0.6500000000000001,,,binary
Yb0.490Nd0.510,Yb,Nd,0.48975232810699887,0.5102476718930011,1274.8839277766733,2324.787835154777,6171.245507104954,1.12040990687572,1.8010247671893003,0.039999999999999813,,,binary
W0.203Re0.797,W,Re,0.20257211727676128,0.7974278827232387,4071.234856583204,5994.022926941798,21975.4487723369,1.9931831739473103,1.35,0.45999999999999996,,,binary
Tb0.180Rh0.820,Tb,Rh,0.18003604582033833,0.8199639541796617,1952.6382818189486,3410.6786170423875,11022.679361488113,2.067557465932001,1.4220144183281354,1.1799999999999997,,,binary
Eu0.820Mn0.180,Eu,Mn,0.8200948726743374,0.17990512732566255,1159.9930954960582,1694.285845611513,5638.911941886801,1.2629667945639818,1.769042692703452,0.3500000000000001,,,binary
Ta0.461Ba0.539,Ta,Ba,0.46051678257194806,0.5394832174280519,1707.6659536494465,3370.2387852786665,10202.661549874985,1.1709152373688883,1.8276382521996362,0.61,,,binary
Eu0.345Dy0.655,Eu,Dy,0.34454039152537663,0.6554596084746234,1569.172284017377,2384.4267983580517,6657.278228638224,1.2131091921694925,1.7844540391525379,0.020000000000000018,,,binary
Nd0.552Zn0.448,Nd,Zn,0.5524416063240879,0.4475583936759121,921.0652994634565,2302.237175821143,7400.250056636324,1.368254780774715,1.626220803162044,0.51,,,binary
Os0.867Ta0.133,Os,Ta,0.8669271375436031,0.13307286245639693,3610.5512208611954,5078.986533942722,19300.324493821034,2.1068489962805224,1.3199609293684595,0.7000000000000002,,,binary
Zr0.351Al0.649,Zr,Al,0.3505718245874353,0.6494281754125647,1388.4574111852917,3170.083942948645,3826.8609439425945,1.5118398891155183,1.3551715473762305,0.28,,,binary
Ru0.692Tm0.308,Ru,Tm,0.6918529727508934,0.3081470272491066,2677.150299149499,4054.837598795634,11611.031615119877,1.9072603241133488,1.438666162262098,0.9500000000000002,,,binary
Hg0.772Ag0.228,Hg,Ag,0.7720880470245243,0.22791195297547573,403.561135857538,1063.3009044248784,2644.856107825617,1.9840461632917168,1.5227911952975475,0.07000000000000006,,,binary
Cu0.686Ho0.314,Cu,Ho,0.6863782366011317,0.31362176339886827,1420.3292550847618,3558.665410954671,10028.858164608828,1.6898734185227582,1.4754487053595473,0.6699999999999999,,,binary
Sr0.456Ca0.544,Sr,Ca,0.45628637885297296,0.543713621147027,1265.9131950677302,1762.6693682236332,2162.7810364518027,0.9771856810573514,1.8912572757705948,0.050000000000000044,,,binary
Hf0.541Ba0.459,Hf,Ba,0.5413374609281577,0.4586625390718423,2071.965159915784,3784.542628494142,8373.263882004672,1.1119483589805448,1.8251975234431055,0.41000000000000003,,,binary
Nb0.585Tb0.415,Nb,Tb,0.5853021328566891,0.4146978671433109,2182.626104717567,4493.852715351609,7337.215186750147,1.3926510664283445,1.5744093601429934,0.5,,,binary
Ag0.813Cu0.187,Ag,Cu,0.8130376311458232,0.18696236885417683,1239.8759691774312,2860.7189335415296,7962.163866718191,1.9243911289343745,1.5532594077864559,0.030000000000000027,,,binary
Mo0.687Pd0.313,Mo,Pd,0.686835693635558,0.31316430636444204,2954.622389962535,4879.537526439166,10328.111321500093,2.172526572254578,1.4343417846817779,0.040000000000000036,,,binary
Gd0.682Mn0.318,Gd,Mn,0.6819402937614915,0.31805970623850854,1648.9948228071755,3145.8169149416995,8718.870489540823,1.311320897183478,1.6727761175045965,0.3500000000000001,,,binary
Ti0.605Sc0.395,Ti,Sc,0.605301195569004,0.39469880443099603,2076.68617880677,2906.451574115438,4135.668881632633,1.4689542152024209,1.4789397608861992,0.17999999999999994,,,binary
Nd0.715Pt0.285,Nd,Pt,0.7153602039220113,0.2846397960779887,1477.8589680356372,3609.0126430259115,10076.161676991856,1.464489367528907,1.7076801019610057,1.14,,,binary
Tc0.541V0.459,Tc,V,0.5412751988209267,0.4587248011790733,2721.6850103173156,4575.458809857261,8359.646876955987,1.77614430368165,1.35,0.27,,,binary
La0.623Sr0.377,La,Sr,0.6231265114259555,0.37687348857404446,987.0806505105137,2842.0799262101973,5030.382751607054,1.0434689767138934,1.9688436744287021,0.15000000000000013,,,binary
Zn0.414Os0.586,Zn,Os,0.4139986766773859,0.5860013233226141,2277.512895269029,4034.8506466902013,17485.540175331167,1.9723007278274378,1.3206999338338694,0.5500000000000003,,,binary
Nd0.786Yb0.214,Nd,Yb,0.7857313233077476,0.21426867669225236,1375.7444018595043,3061.946126164071,5812.841781427717,1.1314292529323098,1.8285731323307748,0.039999999999999813,,,binary
Cu0.501Ca0.499,Cu,Ca,0.5008985371018171,0.4991014628981829,1212.4029960832754,2742.6772811478822,5214.615845749001,1.4508086833916354,1.5745956583041822,0.8999999999999999,,,binary
Fe0.391Pt0.609,Fe,Pt,0.3910924464593367,0.6089075535406633,2049.4599366026287,3602.381051656482,14281.725600150572,2.1040083990932983,1.3695546223229669,0.44999999999999973,,,binary
Al0.291Dy0.709,Al,Dy,0.29110464363087313,0.7088953563691269,1444.640340473764,2913.3646182273,6398.748386423846,1.3335308110160407,1.6044476781845636,0.3900000000000001,,,binary
Eu0.233Ho0.767,Eu,Ho,0.23267484162572663,0.7673251583742734,1548.8617445714854,2460.3152883164475,8860.67235282448,1.2230197547512283,1.7732674841625728,0.030000000000000027,,,binary
Sc0.457Cu0.543,Sc,Cu,0.4569763550712014,0.5430236449287986,1520.1370032730172,3614.1154811404062,7156.8683535307,1.6532327682615513,1.4642440887678005,0.5399999999999998,,,binary
Nb0.859Pr0.141,Nb,Pr,0.8589694652903826,0.14103053470961735,2512.0057743545162,4326.681961515668,6566.9724183509215,1.53371564868648,1.506412213883847,0.4700000000000002,,,binary
Dy0.689Zn0.311,Dy,Zn,0.6887358470678595,0.3112641529321405,1170.6186975920946,2004.118254346193,9229.994138325226,1.3538435857608202,1.625494338827144,0.42999999999999994,,,binary
Sr0.132Re0.868,Sr,Re,0.13233586084138818,0.8676641391586118,3176.574181833339,5518.268762458829,14459.392756211419,1.7742809322006812,1.4360183095469023,0.95,,,binary
Ba0.150Ru0.850,Ba,Ru,0.15028892913077538,0.8497110708692246,2082.10844623922,4442.30006122253,11354.993973730956,2.0031215028386846,1.427745589761159,1.31,,,binary
Os0.134Ru0.866,Os,Ru,0.1342467526709175,0.8657532473290825,2661.0807120019313,4795.08687136917,15993.039590084141,2.2,1.3,0.0,,,binary
Tc0.826Y0.174,Tc,Y,0.8261808740583686,0.1738191259416314,2269.031203724012,4406.8818789690795,10476.357984093562,1.7818029943596907,1.4282186066737343,0.6799999999999999,,,binary
Os0.476Ir0.524,Os,Ir,0.4757393832081672,0.5242606167918328,3728.4688366115815,3933.597626955042,24177.170408785725,2.2,1.3262130308395919,0.0,,,binary
Ca0.132V0.868,Ca,V,0.13192375886791813,0.8680762411320819,2018.6615960236816,3620.5042096804614,5146.318743656128,1.5468880319132114,1.4093656914905632,0.6299999999999999,,,binary
Tb0.183Ta0.817,Tb,Ta,0.18258001031718402,0.817419989682816,2972.1100476636384,5702.9817927158765,19814.483168342922,1.4269679958731265,1.5047740030951553,0.3999999999999999,,,binary
Y0.764Gd0.236,Y,Gd,0.7637177245229203,0.2362822754770797,1889.7155164500427,3284.336142655366,5058.373078140693,1.2152743544904583,1.8,0.020000000000000018,,,binary
Lu0.563Pd0.437,Lu,Pd,0.5629051479360465,0.4370948520639535,1797.262841538134,2857.6721283873203,10438.417155680389,1.6764982124194767,1.5970168017776163,0.9300000000000002,,,binary
Pr0.401Nb0.599,Pr,Nb,0.4013276556353289,0.5986723443646711,2287.3298266779325,3868.542653818265,8612.775735300327,1.4113760018513954,1.6105310622541316,0.4700000000000002,,,binary
Ir0.570Os0.430,Ir,Os,0.5701430598100218,0.4298569401899782,3128.2188899143925,4588.441435524952,22312.484443809586,2.2,1.3285071529905013,0.0,,,binary
Mn0.301Y0.699,Mn,Y,0.30126912818150975,0.6987308718184903,1988.700036812637,3461.4423654054103,5379.926240725831,1.3194188122998982,1.679492348727396,0.33000000000000007,,,binary
Ru0.425Y0.575,Ru,Y,0.4246737620407224,0.5753262379592776,2091.221391241861,3984.980912206581,7425.563457209816,1.636180286799908,1.587663118979639,0.9800000000000002,,,binary
Re0.734Ba0.266,Re,Ba,0.7341259627467995,0.26587403725320047,2214.788097670403,5874.59987969479,16618.727911037862,1.6314672223742674,1.5626992298025604,1.0099999999999998,,,binary
Sm0.501Al0.499,Sm,Al,0.5014695875765934,0.49853041242340657,1185.2221884590144,2418.8591221716215,4663.328858903395,1.3893533814662988,1.5508817525459562,0.44000000000000017,,,binary
Cu0.232Mg0.768,Cu,Mg,0.23248465794319373,0.7675153420568063,1005.0372496709323,1503.7707680441256,4183.66867533062,1.4471659481864845,1.4651273013085209,0.5899999999999999,,,binary
Mn0.615Sc0.385,Mn,Sc,0.6147816019106478,0.3852183980893522,1431.0881312095933,2358.801776017225,5489.485640430446,1.476808504363023,1.4770436796178705,0.18999999999999995,,,binary
Tc0.250Zn0.750,Tc,Zn,0.2495245406470141,0.7504754593529859,1271.2449989428405,2020.8311833978153,7210.843488381952,1.7123811351617535,1.35,0.25,,,binary
Os0.674Sm0.326,Os,Sm,0.6738421667632764,0.32615783323672365,3000.86183261047,4548.183859208354,18583.27590827686,1.8640574317661747,1.4793868082801982,1.0300000000000002,,,binary
Ni0.284Dy0.716,Ni,Dy,0.2842770660794597,0.7157229339205403,1814.865292473344,3641.909555926468,10543.137410797166,1.4161511755948273,1.6362891735682161,0.69,,,binary
W0.191Yb0.809,W,Yb,0.1906709580511847,0.8093290419488153,1483.0131284106776,2673.6501292204284,9332.088118880753,1.3402454071444927,1.6737316167795262,1.2599999999999998,,,binary
Ho0.483Sr0.517,Ho,Sr,0.4832169306916233,0.5167830693083767,1449.42157519776,1912.060632511657,5513.462450237464,1.0853007405936546,1.879195767327094,0.28,,,binary
Nd0.618Zr0.382,Nd,Zr,0.617807387312442,0.382192612687558,1483.3633967130245,4194.021333487252,7406.050598522106,1.212616596410636,1.7353422161937326,0.19000000000000017,,,binary
Au0.295Ti0.705,Au,Ti,0.2949362459370156,0.7050637540629844,1397.2330544064137,3425.3181681466067,9865.082130636758,1.8349362459370155,1.385253187703149,1.0,,,binary
Cu0.574Pr0.426,Cu,Pr,0.5738781282969065,0.42612187170309346,1269.794408037681,3599.259925558446,8227.563972354159,1.571886158788618,1.5630609358515468,0.77,,,binary
Cu0.510Gd0.490,Cu,Gd,0.510114252800887,0.48988574719911304,1519.279589913897,3267.1192024569973,7396.34727857416,1.5570799769606207,1.570448586239601,0.7,,,binary
Pr0.145Zn0.855,Pr,Zn,0.14472960332835536,0.8552703966716446,681.2113061517865,1633.0591460424366,7081.387583496168,1.574740606269255,1.422364801664178,0.52,,,binary
Pd0.513Nb0.487,Pd,Nb,0.5133125541105171,0.4866874458894829,2245.215694798315,3928.877143995071,10026.827654899766,1.9079875324663105,1.4243343722944741,0.6000000000000001,,,binary
Pt0.875Sm0.125,Pt,Sm,0.875394949696092,0.124605050303908,2159.2570440969043,3717.1120855055387,16779.54493374022,2.141688394162662,1.412302525151954,1.1099999999999999,,,binary
Gd0.803Ti0.197,Gd,Ti,0.8028071863624292,0.1971928136375708,1778.2899312591708,3457.9686046636048,7254.432225214231,1.267045556636774,1.7211228745449718,0.3400000000000001,,,binary