formula,element_1,element_2,composition_1,composition_2,melting_point,boiling_point,density,electronegativity,atomic_radius,electronegativity_difference,element_3,composition_3,alloy_type
Re0.551Pr0.449,Re,Pr,0.550885189426555,0.44911481057344504,3013.0302823644797,4745.640719758567,14406.88396234581,1.5541815958584473,1.5745574052867226,0.77,,,binary
Pr0.769Mo0.231,Pr,Mo,0.7693574725866688,0.23064252741333124,1756.351269269207,4533.969132766152,6254.36861075781,1.367561803235731,1.7577429890346674,1.0300000000000002,,,binary
Ba0.347La0.653,Ba,La,0.3472424577209757,0.6527575422790244,924.8395069981804,2989.1439430744254,5535.479615683254,1.0270790838785953,2.0194484915441953,0.21000000000000008,,,binary
Ba0.172V0.828,Ba,V,0.1722059014807223,0.8277940985192778,2077.6256353668537,3780.680663646811,4982.964164856768,1.5025676329042654,1.4877647211845781,0.7399999999999999,,,binary
Ru0.275Sm0.725,Ru,Sm,0.2750471533532618,0.7249528466467382,1300.1926023977057,2955.0472926155626,8009.655087067138,1.4532985679538597,1.698724065655706,1.0300000000000002,,,binary
Y0.101Sr0.899,Y,Sr,0.10054679710706466,0.8994532028929354,898.167183789079,1878.326536312846,3038.5025911265425,0.9771476352189075,1.9798906405785872,0.27,,,binary
Eu0.745Mo0.255,Eu,Mo,0.7451563306480024,0.25484366935199765,1537.9503389159713,2474.350047345372,6423.370731479666,1.4446499225779177,1.748062532259201,0.9600000000000002,,,binary
W0.242Tm0.758,W,Tm,0.24196789812314973,0.7580321018768503,2187.970902477747,2678.0340222375603,10885.643421648178,1.5185843669166963,1.6532128407507403,1.1099999999999999,,,binary
Ta0.118Cr0.882,Ta,Cr,0.11753031699485783,0.8824696830051422,2430.8982185225086,3376.795961633449,8396.492284359583,1.6411951492808228,1.4058765158497428,0.15999999999999992,,,binary
Nd0.834Tm0.166,Nd,Tm,0.8337793179848949,0.1662206820151051,1245.9121343208321,3124.0947007250493,5647.4098647788915,1.1582842750216615,1.8333779317984895,0.1100000000000001,,,binary
Ni0.789Y0.211,Ni,Y,0.7885355732732406,0.21146442672675936,1774.1227062214248,3743.464572182029,6795.06877797697,1.764089545558536,1.4451589920270418,0.69,,,binary
Mn0.664Os0.336,Mn,Os,0.6636304077024651,0.33636959229753494,1995.870377120942,3436.1082055005063,14136.536178861199,1.7686402349933978,1.3663630407702465,0.6500000000000001,,,binary
Dy0.569Pt0.431,Dy,Pt,0.5688133305372726,0.43118666946272743,1753.5444039572262,3148.2838061426382,11209.495707747443,1.677057869630491,1.577525332214909,1.0599999999999998,,,binary
W0.358Hf0.642,W,Hf,0.3580825634983281,0.6419174365016719,2962.085746735301,6282.224147203913,15865.168974121603,1.6795675173082278,1.4783834873003343,1.0599999999999998,,,binary
Zr0.859Yb0.141,Zr,Yb,0.8589548256210587,0.14104517437894126,1978.1654339571749,4365.024726199491,6512.090431122999,1.2975596098928435,1.5782090348757882,0.22999999999999998,,,binary
Gd0.619Ba0.381,Gd,Ba,0.6193442125158513,0.38065578748414874,1251.5580859458962,3244.4892230472697,6370.179490894988,1.0819967058799138,1.933229525619452,0.30999999999999994,,,binary
Nb0.875Tm0.125,Nb,Tm,0.8749943170665342,0.1250056829334658,2638.13314407389,4212.459193198593,9793.222802584098,1.556248010973287,1.4875017048800396,0.3500000000000001,,,binary
Er0.730Eu0.270,Er,Eu,0.7295934340764615,0.2704065659235385,1719.047897797978,2624.762110353199,8837.222530378354,1.2291837373630585,1.7770406565923538,0.040000000000000036,,,binary
Ru0.571Dy0.429,Ru,Dy,0.5711601246264829,0.4288398753735171,2099.528878614832,3451.352915112846,9916.927338790869,1.7797369221339534,1.4929779439180826,0.9800000000000002,,,binary
Nb0.345Ir0.655,Nb,Ir,0.34545858343836644,0.6545414165616336,2257.0313538101195,5036.9845736646685,14529.079275515029,1.9927248499369803,1.3845458583438366,0.6000000000000001,,,binary
Er0.202Cd0.798,Er,Cd,0.20187869177882842,0.7981213082211716,735.0959196046697,1160.2505084755912,8658.808425017402,1.599154588699527,1.5903757383557657,0.44999999999999996,,,binary
Yb0.859Al0.141,Yb,Al,0.8590304833770301,0.14096951662296986,1057.8036303795163,1601.4180251552182,5396.3524629768035,1.1718944534777147,1.6795152416885153,0.51,,,binary
Pr0.781Pt0.219,Pr,Pt,0.7806055724280067,0.21939442757199334,1227.8039678700143,3851.281589713766,9270.144298326932,1.3823035917077922,1.7403027862140035,1.15,,,binary
Pr0.246V0.754,Pr,V,0.2456654048108379,0.7543345951891621,2004.9597181260417,3328.0300883723876,6353.189485538824,1.507167297594581,1.472832702405419,0.5,,,binary
Ta0.277Eu0.723,Ta,Eu,0.27671620034960964,0.7232837996503904,1927.5312691619372,3057.042666014737,8053.78809535074,1.283014860104883,1.7393135198601561,0.30000000000000004,,,binary
Pr0.849Co0.151,Pr,Co,0.8493502348434034,0.15064976515659656,1325.6033341177178,3423.881231881524,6985.969207333253,1.2429873238674474,1.7746751174217017,0.75,,,binary
Zn0.696W0.304,Zn,W,0.696274662481586,0.303725337518414,1552.3143870162057,2549.124360913017,11047.55884111812,1.8656449896380738,1.35,0.71,,,binary
Rh0.886Re0.114,Rh,Re,0.8859037239522854,0.11409627604771455,2140.3613400631125,3759.7621931136714,11563.29720912034,2.2366434151018684,1.35,0.3799999999999999,,,binary
Zr0.808Gd0.192,Zr,Gd,0.8082562027161099,0.19174379728389013,1700.0069508000427,3916.888984879585,6885.599972979262,1.3050733063530944,1.5979359493209726,0.13000000000000012,,,binary
Fe0.636Tm0.364,Fe,Tm,0.6360196568912427,0.36398034310875726,1651.6365733718328,2946.3499391896585,8429.841464425808,1.6188914009969206,1.527393120088065,0.5800000000000001,,,binary
Yb0.457W0.543,Yb,W,0.4573039472782351,0.5426960527217649,2013.435231386532,4085.769823455123,14542.022499350467,1.7837970264294238,1.532921578911294,1.2599999999999998,,,binary
Pd0.300Tc0.700,Pd,Tc,0.29963269050822305,0.700367309491777,2026.0531665798085,4322.1685725711,10658.31292034673,1.9898898071524669,1.364981634525411,0.30000000000000027,,,binary
Mn0.305Re0.695,Mn,Re,0.3053263532341719,0.6946736467658281,2894.6657180923503,4184.018163223856,13855.557146772468,1.7931357763680398,1.3652663176617086,0.34999999999999987,,,binary
Co0.101Yb0.899,Co,Yb,0.10102492599575195,0.898975074004248,1120.1976489919948,1623.5346652982253,6534.751613008447,1.1787994422766865,1.7095900296016993,0.7799999999999998,,,binary
Ir0.686Mg0.314,Ir,Mg,0.6860675955990149,0.31393240440098513,1912.094513411564,3507.0067622937495,16518.207395577156,1.9206001600831235,1.3970898606601478,0.8900000000000001,,,binary
Zr0.494Au0.506,Zr,Au,0.49446559477907814,0.5055344052209219,1720.530298308217,3968.023987810265,12106.719293980193,1.9416966303173155,1.4488931189558159,1.21,,,binary
Ir0.537Re0.463,Ir,Re,0.5368191741427635,0.4631808258572365,3432.499374999483,4625.445705601251,22962.529268041366,2.061045752242829,1.35,0.30000000000000027,,,binary
Co0.731Sr0.269,Co,Sr,0.7309839955809755,0.2690160044190245,1760.9762149833293,2918.272892930423,7067.183466198639,1.629815115890307,1.524860402872366,0.9299999999999999,,,binary
Pr0.707Tb0.293,Pr,Tb,0.7065948348472143,0.2934051651527857,1261.1795773307254,3912.7297593484054,6092.506861734955,1.1211978450454163,1.8206594834847216,0.029999999999999805,,,binary
Ru0.461Zr0.539,Ru,Zr,0.46102993532245984,0.5389700646775402,2120.9673184423286,4381.203809148869,10352.322616048707,1.73109604373054,1.434742516169385,0.8700000000000001,,,binary
V0.116Cd0.884,V,Cd,0.116062398664456,0.883937601335544,808.18699495739,1216.0665934231904,8095.933166613542,1.6830362560801326,1.5267875202671086,0.06000000000000005,,,binary
Pd0.159Co0.841,Pd,Co,0.15936032141332745,0.8406396785866725,1668.369373528808,2978.1972901291715,10317.611589995844,1.9309953028522648,1.3579680160706666,0.3200000000000003,,,binary
Zr0.229Ir0.771,Zr,Ir,0.2287235959290569,0.7712764040709431,2242.6995660783773,5452.242996287545,20528.839900923726,2.0010104715417207,1.3957447191858114,0.8700000000000001,,,binary
Mn0.853Ce0.147,Mn,Ce,0.8534673148281823,0.14653268517181772,1611.4065520247318,2407.484009438478,7245.268207712628,1.4869909453761183,1.4659397083273178,0.42999999999999994,,,binary
Fe0.575W0.425,Fe,W,0.5752244352416759,0.4247755647583241,2237.041503422657,4053.8766733736497,13333.496858726588,2.055131049321912,1.3787612217620837,0.5299999999999998,,,binary
Eu0.664Sr0.336,Eu,Sr,0.6636037172734331,0.33639628272656685,1222.8175577349775,1557.3347418249386,4205.129198385851,1.1159009293183582,1.9004594424089851,0.25,,,binary
Hg0.232Tb0.768,Hg,Tb,0.2319977558095313,0.7680022441904687,1285.6862043143194,2440.535011363945,6685.482531048569,1.3087979802285783,1.6920005610476172,0.8999999999999999,,,binary
Hg0.143Zr0.857,Hg,Zr,0.1428445941284764,0.8571554058715236,1723.016986120778,4023.004452276836,5328.7086669430155,1.4257058780660792,1.5428577702935762,0.6699999999999999,,,binary
W0.880Tc0.120,W,Tc,0.8795187365411773,0.12048126345882271,3262.9608371700942,5668.582846349027,17921.35387814145,2.304578618808941,1.35,0.45999999999999996,,,binary
Au0.543Er0.457,Au,Er,0.5432899458529835,0.4567100541470165,1491.928242760331,2906.1456443299667,15093.367025741092,1.9462769296088784,1.5326840216588067,1.3,,,binary
Yb0.312La0.688,Yb,La,0.3122118154799812,0.6877881845200188,1355.3479288898031,3075.4585536189684,6903.778459403438,1.1,1.887557636904004,0.0,,,binary
Cd0.290Hf0.710,Cd,Hf,0.29003862795779656,0.7099613720422034,1680.2067596221336,3822.7839497414866,10646.140869111181,1.4131150649035407,1.55,0.3899999999999999,,,binary
Cr0.557Pt0.443,Cr,Pt,0.5574158462861932,0.44258415371380677,1805.7479791617382,3199.308359507532,14900.949551814601,1.93440217530256,1.3778707923143096,0.6199999999999999,,,binary
Ba0.144Zn0.856,Ba,Zn,0.14360388136404112,0.8563961186359589,806.8106838546926,1350.325620324947,5604.266645908079,1.5408610501633286,1.464883105091233,0.7599999999999999,,,binary
Al0.170Hg0.830,Al,Hg,0.1701026874455776,0.8298973125544225,346.3137330322625,1027.7618987571586,467.3392358898131,1.933659951896225,1.4574743281386058,0.3899999999999999,,,binary
Dy0.580Gd0.420,Dy,Gd,0.5801724224110151,0.4198275775889849,1337.7127743446858,2848.3627936515554,8225.067783256083,1.21160344844822,1.7709913788794494,0.020000000000000018,,,binary
Mo0.121Co0.879,Mo,Co,0.1205885541853486,0.8794114458146514,2006.134959444993,2658.348169170878,8919.423925778045,1.9137647951718975,1.3620588554185349,0.28000000000000025,,,binary
Zr0.333Gd0.667,Zr,Gd,0.333449172836886,0.666550827163114,1791.3262133999801,4241.6206447478835,7952.818869481002,1.2433483924687951,1.7166377067907785,0.13000000000000012,,,binary
Fe0.775Sr0.225,Fe,Sr,0.7750152594775493,0.22498474052245065,1735.3158774011401,2577.1644288115685,5416.929042121843,1.6320134283402437,1.5349908443134703,0.8800000000000001,,,binary
Hf0.477Pt0.523,Hf,Pt,0.47675556235967165,0.5232444376403284,2173.9567009466314,4916.536659217634,19802.78298420838,1.8127795488875216,1.4453511124719345,0.9799999999999998,,,binary
Dy0.173Pd0.827,Dy,Pd,0.1729095020405434,0.8270904979594567,1930.5237243314727,3303.5227379786834,11856.307603521796,2.030548688000268,1.46051832571419,0.9800000000000002,,,binary
La0.248Ir0.752,La,Ir,0.24790497643363782,0.7520950235663622,2224.73184959945,4405.454529083019,21656.131678260266,1.9273045259229984,1.4987429858601828,1.1,,,binary
Ir0.249Os0.751,Ir,Os,0.2492663529263453,0.7507336470736548,2866.377852578951,5969.332455616497,21891.54391367607,2.2,1.3124633176463174,0.0,,,binary
V0.452Pd0.548,V,Pd,0.4517923382822153,0.5482076617177847,2251.9644256250244,2953.1303431492893,9899.463258518155,1.9424783671791372,1.377410383085889,0.5700000000000003,,,binary
Pd0.770Ru0.230,Pd,Ru,0.7696630017075657,0.23033699829243426,1859.5665363066857,3012.7347309699035,12367.417093292925,2.2,1.3769663001707564,0.0,,,binary
Pr0.221Cr0.779,Pr,Cr,0.2209045395388313,0.7790954604611687,2163.670338740238,2820.435428827908,5975.807305988607,1.5429205940444195,1.4994070427924742,0.53,,,binary
Er0.177Dy0.823,Er,Dy,0.17736209682051723,0.8226379031794828,1686.0095200880205,2868.0875756014884,9116.21802600627,1.2235472419364104,1.7500000000000002,0.020000000000000018,,,binary
Dy0.747Re0.253,Dy,Re,0.7465441259232104,0.2534558740767896,2333.246917274102,3586.2825216189135,13884.384553008553,1.3923499943722168,1.6486176503692842,0.6799999999999999,,,binary
Au0.282Nd0.718,Au,Nd,0.2820102068996543,0.7179897931003457,1337.7117507613534,3189.72362681984,8661.163726589108,1.5348142896595158,1.708994896550173,1.4000000000000001,,,binary
Cr0.755Ir0.245,Cr,Ir,0.7547241718922989,0.2452758281077011,2256.2481091304844,3261.4207302905133,11995.207566972347,1.7924489471781584,1.387736208594615,0.5400000000000003,,,binary
Au0.650La0.350,Au,La,0.6496543459111095,0.3503456540888905,1346.2753678414472,2949.717961087033,14944.6217154427,2.0355022581119977,1.5602073924533344,1.44,,,binary
Sr0.805Pr0.195,Sr,Pr,0.8053230955340983,0.1946769044659017,1153.3352833714434,2336.09046047637,3713.3513168941918,0.9850418428038623,1.9707984643301146,0.17999999999999994,,,binary
Sr0.163Hf0.837,Sr,Hf,0.16316403981926655,0.8368359601807335,2441.0261359042615,4376.58873102415,12016.584396658602,1.2428925860632567,1.62342381791867,0.3500000000000001,,,binary
Tm0.502V0.498,Tm,V,0.5016811762524839,0.4983188237475161,2249.773152768336,2556.007737665631,7451.099707704923,1.439361153024056,1.5506724705009938,0.3799999999999999,,,binary
Y0.642Pr0.358,Y,Pr,0.6420279084608242,0.35797209153917575,1464.7979568043388,3728.7453036568054,5893.714363911712,1.1877825117614742,1.817898604576959,0.09000000000000008,,,binary
Eu0.196Zn0.804,Eu,Zn,0.19622549980434664,0.8037745001956533,726.299433599461,990.5234970274466,6488.967247262006,1.561698525088044,1.4481127499021733,0.44999999999999996,,,binary
Mg0.859Nb0.141,Mg,Nb,0.859249186422634,0.14075081357736596,1287.955497505995,1978.2329212012173,2815.2031270953617,1.350817735937436,1.4929624593211317,0.29000000000000004,,,binary
Zr0.747Tc0.253,Zr,Tc,0.7467685770554905,0.2532314229445095,2142.752041402445,4051.3565115337337,8174.980521444212,1.4743419110783704,1.499353715411098,0.5699999999999998,,,binary
Cu0.439V0.561,Cu,V,0.43869991945247955,0.5613000805475205,1669.0513117612034,4227.179809618317,7761.655770011041,1.7484489782521693,1.35,0.27,,,binary
Ho0.262Hg0.738,Ho,Hg,0.2615354239777876,0.7384645760222124,590.1595381301995,1171.6236283171754,2278.8249898008753,1.7986177235371035,1.5653838559944468,0.77,,,binary
Gd0.767Zn0.233,Gd,Zn,0.7672864949408034,0.23271350505919663,1344.357405647141,3310.3176872962995,7867.891101628871,1.3047210772766384,1.6952789227233616,0.44999999999999996,,,binary
Pd0.829Ta0.171,Pd,Ta,0.8286435885852754,0.17135641141472457,1926.4901292962322,4356.103665580421,12879.059013130689,2.080050512009693,1.408567820570736,0.7000000000000002,,,binary
Mn0.410Fe0.590,Mn,Fe,0.41047932241180063,0.5895206775881994,1821.161593728059,2634.971507009278,7988.06192017559,1.715065789724696,1.4,0.28,,,binary
Pt0.361Ce0.639,Pt,Ce,0.36090144429578885,0.6390985557042111,1463.4573525253888,3082.5976458980635,14281.766557407365,1.538645675383115,1.6695492778521057,1.1599999999999997,,,binary
Ag0.467Y0.533,Ag,Y,0.4665257448980922,0.5334742551019078,1734.0700425781004,2939.7054219948463,6477.148950836843,1.5512332788776453,1.7066948510203817,0.71,,,binary
Al0.598Er0.402,Al,Er,0.5984463428710466,0.4015536571289534,1326.796839216016,2957.563224875936,5443.240515721688,1.4614251468622874,1.4507768285644769,0.3700000000000001,,,binary
Y0.190Au0.810,Y,Au,0.19001507410074706,0.809984925899253,1452.3550777025264,3383.2273252387813,18867.971801760883,2.289180102187014,1.4355067833453363,1.32,,,binary
Zn0.570Pr0.430,Zn,Pr,0.5703473066251105,0.42965269337488954,966.0182937673286,1972.5327429383858,7868.772090171222,1.4265805994450573,1.564826346687445,0.52,,,binary
Co0.724Pr0.276,Co,Pr,0.7236357575714017,0.27636424242859825,1877.9058758111912,4340.59987755182,7345.678671013591,1.6727268181785513,1.4881821212142992,0.75,,,binary
Cd0.804La0.196,Cd,La,0.8041086277000259,0.1958913722999741,728.7972757670881,1242.7101581409502,8610.829394337525,1.5744240903430151,1.6283565489199896,0.5899999999999999,,,binary
Au0.406Pd0.594,Au,Pd,0.4064347783016423,0.5935652216983577,1539.324187903305,3806.573756589494,13820.204174879706,2.3381878246225583,1.3796782610849179,0.33999999999999986,,,binary
Ba0.587Pr0.413,Ba,Pr,0.5871697215619481,0.41283027843805187,902.445599317334,2600.6008000860224,3853.498178654773,0.9890792668251325,2.0261509164685845,0.23999999999999988,,,binary
V0.320Nb0.680,V,Nb,0.32033131362780304,0.679668686372197,2761.282436894159,3641.1088586476885,7804.130615376257,1.6096099394088341,1.4179668686372198,0.029999999999999805,,,binary
Zn0.587Eu0.413,Zn,Eu,0.5869242112685016,0.4130757887314984,681.7208934326783,1390.1087974474528,7401.4722954009885,1.4641158950708255,1.5565378943657493,0.44999999999999996,,,binary
Er0.131Pt0.869,Er,Pt,0.13102602598543608,0.8689739740145639,2082.523762952513,3629.5759247868004,19453.650880687634,2.1437329329751464,1.4024104103941744,1.0399999999999998,,,binary
W0.290Er0.710,W,Er,0.2900634351330458,0.7099365648669542,2355.326011625365,4105.690472264879,10377.04144741861,1.564871047349011,1.6339746259467818,1.1199999999999999,,,binary
Lu0.837Sr0.163,Lu,Sr,0.8366679863249322,0.16333201367506778,1887.6849827183266,2440.431581415391,8117.5304546221,1.2177337556239785,1.790833003418767,0.32000000000000006,,,binary
Os0.370Ti0.630,Os,Ti,0.37029286514154625,0.6297071348584538,2326.996018405391,4464.673622312497,11235.781855305606,1.7843932909934206,1.3629707134858453,0.6600000000000001,,,binary
Hf0.774Ag0.226,Hf,Ag,0.7742772548891258,0.2257227451108742,1907.1834156732305,3899.0001905262484,12925.258211097593,1.442205329419851,1.5612861372555438,0.6299999999999999,,,binary
Er0.179Ho0.821,Er,Ho,0.178573912218193,0.821426087781807,1732.336737272478,2844.566529417134,8418.173287883417,1.231785739122182,1.75,0.010000000000000009,,,binary
Ru0.340Cu0.660,Ru,Cu,0.34038435801398403,0.659615641986016,1907.1142945283223,3429.077418800841,10005.403861341118,2.0021153074041953,1.332980782099301,0.30000000000000027,,,binary
Lu0.719Mg0.281,Lu,Mg,0.7192247201551397,0.2807752798448603,2000.3276546140103,2595.06289069249,6164.796306333933,1.2812310111937943,1.679806180038785,0.040000000000000036,,,binary
Ta0.683Ag0.317,Ta,Ag,0.683039530615644,0.31696046938435596,2845.383901526762,4368.265910945443,14229.79315406102,1.636293001835273,1.4975440704076535,0.42999999999999994,,,binary
Sm0.171Tb0.829,Sm,Tb,0.17142948024234583,0.8285705197576542,1456.8667893993202,3173.7176298054924,9360.648978544923,1.1120000636169642,1.7671429480242347,0.06999999999999984,,,binary
Mg0.831Tc0.169,Mg,Tc,0.8307462443349923,0.16925375566500767,1272.5613889175568,2064.2359641226244,2910.1180540417427,1.4098597158423547,1.4746119366502488,0.5899999999999999,,,binary
Au0.488Lu0.512,Au,Lu,0.4875682637661296,0.5124317362338704,1449.8575848523333,2441.0060786602608,13283.117535805213,1.8892116949829845,1.5549726944935482,1.27,,,binary
Y0.757Os0.243,Y,Os,0.7568139139187683,0.2431860860812317,2372.6537303033892,4224.215577705314,8686.141008551487,1.458322364359607,1.6784069569593842,0.9800000000000002,,,binary
Sc0.152Zr0.848,Sc,Zr,0.15249357408954556,0.8475064259104544,2075.478297769657,4135.263928144048,6095.616437784763,1.3345748072226866,1.5576246787044774,0.030000000000000027,,,binary
Tm0.423Sc0.577,Tm,Sc,0.422708112809955,0.577291887190045,1954.7506495338878,2289.715454582802,5832.977436653567,1.313502107590905,1.6634062169214934,0.1100000000000001,,,binary
Y0.123Pr0.877,Y,Pr,0.12315852745614855,0.8768414725438515,1400.2117069021501,3420.5298928597917,6819.548273914175,1.1410842674710533,1.8438420736271925,0.09000000000000008,,,binary
Mo0.300Cr0.700,Mo,Cr,0.29959220905942346,0.7004077909405766,3068.479286243069,3496.726924524651,8398.539932726608,1.809796104529712,1.4149796104529713,0.5000000000000002,,,binary
Ca0.834Cr0.166,Ca,Cr,0.834424855472893,0.16557514452710698,1196.0294478595474,1988.9457944224043,2589.5082931017328,1.1092795953878907,1.7337699421891573,0.6599999999999999,,,binary