formula,element_1,element_2,composition_1,composition_2,melting_point,boiling_point,density,electronegativity,atomic_radius,electronegativity_difference,element_3,composition_3,alloy_type
Pt0.385Ni0.347Ag0.268,Pt,Ni,0.3845511157077761,0.34700566072194683,1560.636239097406,3382.4616162248003,14457.033405544216,2.0576527772832827,1.4171108058925694,0.0,Ag,0.26844322357027706,ternary
Ce0.469Mo0.436Dy0.095,Ce,Mo,0.46940741377214734,0.43608777330213633,1637.5150926605472,4366.165393980379,9565.711463312771,1.5829817655267935,1.6661144093865736,0.0,Dy,0.09450481292571633,ternary
Sm0.133Pr0.164Nb0.703,Sm,Pr,0.13268031250001708,0.16412319744368434,2270.153674514125,4985.0145319906505,7938.274671194874,1.465809562826461,1.5687214039774806,0.0,Nb,0.7031964900562986,ternary
Mn0.492Cu0.492Pd0.050,Mn,Cu,0.4919435322215369,0.4916748634236472,1634.2144438101673,2243.663116543268,10756.782643686942,1.806694715448312,1.4224820107320755,0.0,Pd,0.05,ternary
Y0.196Yb0.439Ag0.365,Y,Yb,0.19592577385778417,0.4389893584814575,1477.0468881269996,2177.169896518593,6093.248979344226,1.4265315330213635,1.7050335585437755,0.0,Ag,0.3650848676607583,ternary
Er0.407Ho0.440La0.152,Er,Ho,0.4072282755856256,0.440340176821187,1727.5925295698478,2710.2165356141422,8879.762939415767,1.214256181568742,1.7804863095186376,0.0,La,0.15243154759318744,ternary
Ca0.403Al0.557Hg0.050,Ca,Al,0.4026722075152635,0.5573342868711004,1021.3229016949633,2079.0081195762154,2367.5921537352524,1.3999804093777353,1.4964778321163499,0.0,Hg,0.05,ternary
Cr0.522Ta0.303Hg0.174,Cr,Ta,0.5221707768555972,0.30343794775767474,2352.92092090446,3716.544638189385,8788.318720094014,1.6707429619902596,1.4326110249265565,0.0,Hg,0.17439127538672805,ternary
Ni0.333Ho0.281Y0.386,Ni,Ho,0.33329336380800123,0.2807359215514992,1508.3682535006017,3617.3006661281156,6970.413685995847,1.4527797802430358,1.6359811902088244,0.0,Y,0.3859707146404996,ternary
V0.123Yb0.559Ru0.317,V,Yb,0.12348232372825227,0.5591957458110975,1472.569669068572,3041.652259743923,10107.440109042138,1.514499755082689,1.5578122018014064,0.0,Ru,0.31732193046065016,ternary
La0.103Mg0.197Ta0.700,La,Mg,0.1025796420568931,0.19730406975264034,2597.1147744407285,5672.5309506836775,12745.638440403467,1.421480369924241,1.5111550245160785,0.0,Ta,0.7001162881904666,ternary
Fe0.595Pr0.213Ti0.192,Fe,Pr,0.595132322376386,0.2128140016574249,1642.6719577256708,3098.6123961570997,8104.928585561615,1.6253346328096077,1.4957663007458413,0.0,Ti,0.19205367596618908,ternary
Er0.558Hg0.198Mn0.243,Er,Hg,0.5584976108744151,0.19843840883851635,1311.1787595121425,2626.431634832119,6494.376945790903,1.4661630246062636,1.6153180046898967,0.0,Mn,0.24306398028706858,ternary
W0.413Hf0.148Mn0.439,W,Hf,0.4129973434854102,0.14836304868710318,2446.088529749078,4582.132928114423,12699.841409179257,1.8474370860514064,1.401604590128795,0.0,Mn,0.4386396078274867,ternary
Sr0.396Hg0.413Ti0.191,Sr,Hg,0.3962653852895681,0.41314855417259333,847.0792172123389,1775.1697942823916,2204.8384188335863,1.496251757598548,1.679074086591,0.0,Ti,0.19058606053783855,ternary
W0.154Pd0.219Rh0.627,W,Pd,0.15392032665601565,0.21917960628421104,2524.6887250551285,3825.799258246512,12718.696458600742,2.2747792576297443,1.3609589803142106,0.0,Rh,0.6269000670597733,ternary
W0.442Cr0.536Y0.050,W,Cr,0.4417943636049158,0.5359137399791427,2913.773009213613,4472.015236727935,11314.342865279243,1.993251506472978,1.4367016268374362,0.0,Y,0.05,ternary
Sm0.482Eu0.413Mg0.105,Sm,Eu,0.48204928523179424,0.4126743787767596,1285.7517500557274,1903.1765499171245,4880.7261564693445,1.1971189184021052,1.8131532824029941,0.0,Mg,0.10527633599144615,ternary
Nd0.487Ni0.507Fe0.050,Nd,Ni,0.4869849168613311,0.5074313246971006,1450.4744215951873,3243.767163660523,8165.467343190025,1.6158566353933794,1.6559543845345486,0.0,Fe,0.05,ternary
Ir0.133Ta0.164Er0.704,Ir,Ta,0.13251410939785183,0.16376789533347721,2579.7979519510604,3861.7162386671434,11090.073429292821,1.4097931978086418,1.647863987640816,0.0,Er,0.703717995268671,ternary
Mg0.405Cr0.316Hf0.279,Mg,Cr,0.40536931986430735,0.31591949487399407,1800.1705490070365,2741.5325258135977,6886.451592506107,1.4177847113532809,1.4823436097756855,0.0,Hf,0.2787111852616986,ternary
Co0.380Ho0.247Cr0.373,Co,Ho,0.379629025802773,0.24745838511708865,2024.3021442826832,3422.526153654593,8197.732821790305,1.6371112800762622,1.4676289835008425,0.0,Cr,0.37291258908013836,ternary
Ir0.409Pt0.306Co0.286,Ir,Pt,0.4086509881614273,0.3055540019017159,2616.8323911097705,4458.9516453935275,16953.02611605077,2.132989916972343,1.35,0.0,Co,0.2857950099368568,ternary
Sm0.105Dy0.292Eu0.603,Sm,Dy,0.10530327280391469,0.2919600124068896,1580.606563049942,2202.4403052406415,5894.477991101886,1.2026801020640203,1.820803998759311,0.0,Eu,0.6027367147891957,ternary
Hg0.270Eu0.569Co0.161,Hg,Eu,0.2698082374443167,0.568792426123381,1134.6189377548135,2065.603187171741,4404.607047088002,1.5255981387294186,1.6748674486783381,0.0,Co,0.1613993364323023,ternary
Ti0.264Ca0.196Y0.540,Ti,Ca,0.26409683446516596,0.19624065871539184,1616.5381089169753,3176.899254866674,4187.133063350615,1.261338042111467,1.6943612662139336,0.0,Y,0.5396625068194422,ternary
Co0.457Al0.396Sm0.147,Co,Al,0.4566496970785575,0.3964432492457942,1550.7216784864715,3037.035917033648,6278.005446365531,1.6686563145939253,1.3838092019132446,0.0,Sm,0.14690705367564827,ternary
Mo0.419Pr0.228Cu0.353,Mo,Pr,0.4186818678263501,0.22814305110048952,2262.38331845617,3874.47723186592,9893.897602413623,1.833187136287474,1.50593971233288,0.0,Cu,0.3531750810731604,ternary
Au0.410Sr0.193Yb0.397,Au,Sr,0.4104254433684956,0.1929617034016269,1152.387726905036,2280.4272274608506,10909.136774910068,1.6620683829403897,1.6340702485030087,0.0,Yb,0.3966128532298775,ternary
Cu0.164V0.392Cr0.444,Cu,V,0.16384037551159727,0.3922611476326291,2035.0323728046762,3151.066565202875,7972.717431415007,1.6875538556938043,1.3721949238427886,0.0,Cr,0.44389847685577366,ternary
Sc0.256Tb0.543Re0.202,Sc,Tb,0.2555941201137971,0.5426109550190855,1895.6445006551805,3591.1315951241986,11471.789766941703,1.3278904111232812,1.6309429120360837,0.0,Re,0.20179492486711736,ternary
Zn0.402Sr0.246Hf0.353,Zn,Sr,0.4016647448498767,0.24553197238158428,1559.0286089378415,1980.318665772536,7745.4008898088305,1.3546464703639023,1.5801564386017375,0.0,Hf,0.352803282768539,ternary
Al0.429Y0.172Nd0.399,Al,Y,0.42883840306960186,0.1723001921822043,1005.1594289159344,2863.660928054881,3184.1736132823953,1.3553380648172892,1.5840819485491289,0.0,Nd,0.39886140474819387,ternary
Rh0.529Sc0.311Ce0.160,Rh,Sc,0.5293511027641866,0.31103057020834124,1892.5541330310446,3229.19307811528,8637.972326220292,1.8086946160564583,1.5075668060658214,0.0,Ce,0.15961832702747214,ternary
Mo0.271Gd0.434Mn0.295,Mo,Gd,0.27077596183626196,0.43393006949024293,1608.3936901364882,3577.4204349568645,8068.631760009914,1.5632978123985348,1.58711082588791,0.0,Mn,0.2952939686734951,ternary
Er0.436Ca0.519Sm0.050,Er,Ca,0.4360128201795046,0.5194336901516967,1647.2104032686757,2722.7055416476505,5528.206251116172,1.1185895871742824,1.7905030775871873,0.0,Sm,0.05,ternary
Pr0.250W0.264Eu0.486,Pr,W,0.24981579564025733,0.26430952460423107,1753.1827025828823,3961.2449424328543,7851.168246035353,1.48911194284609,1.7178452376978846,0.0,Eu,0.4858746797555116,ternary
Co0.348Ca0.560V0.092,Co,Ca,0.3479653366632979,0.5599767960745732,1238.3510491595375,2415.7305129009364,5547.80633131085,1.3642059526388435,1.6019895582335582,0.0,V,0.09205786726212895,ternary
Gd0.215Ru0.412Er0.373,Gd,Ru,0.21513700510016362,0.4119600087893699,2044.7160988793128,3682.574003031566,8709.123886615407,1.6268761282337887,1.5753748462997916,0.0,Er,0.37290298611046646,ternary
Rh0.464Sr0.496Lu0.050,Rh,Sr,0.46390846654618867,0.4962342960091497,1811.6162015132547,3117.0620784288394,8170.357996862546,1.5926338849340023,1.7062450218556542,0.0,Lu,0.05,ternary
Lu0.300Ir0.513Tc0.187,Lu,Ir,0.3001562833199073,0.5130421615759956,2283.6131034614186,4054.283741109378,14560.04220978228,1.8648141899812571,1.4700625133279632,0.0,Tc,0.18680155510409713,ternary
Al0.279Os0.377Mn0.344,Al,Os,0.27894333239651314,0.37734580306406795,2047.013271666775,3189.025099303104,10456.928058565942,1.8120113719354352,1.3204239198341163,0.0,Mn,0.3437108645394189,ternary
Zn0.197Cd0.393Mg0.410,Zn,Cd,0.19720172223200863,0.3928431962158857,716.711588532212,1141.323830544072,5221.726190745023,1.5263290001209195,1.490061901475993,0.0,Mg,0.4099550815521057,ternary
Os0.200V0.242Ti0.558,Os,V,0.1995614349761046,0.24205044200325984,2377.9527316738113,3964.38131761804,8262.51394587453,1.6934950868645227,1.3679413344022266,0.0,Ti,0.5583881230206356,ternary
Ru0.187Pd0.524Yb0.289,Ru,Pd,0.18714226014844135,0.5237670919094419,1794.7404947998918,2655.080466714446,10622.190971460743,1.8820002872636719,1.4824675007648966,0.0,Yb,0.2890906479421167,ternary
Rh0.111Nb0.521Mo0.368,Rh,Nb,0.110746014029076,0.5214407103575341,2788.2568515767703,4131.394535641505,10587.374423852067,1.88128272388327,1.4389253985970925,0.0,Mo,0.36781327561338983,ternary
Co0.169Ti0.427Ho0.404,Co,Ti,0.1686217672337694,0.42743459860762234,1667.067325297257,3299.793776736064,7792.609486686482,1.472108874270313,1.5329491835938245,0.0,Ho,0.40394363415860823,ternary
Ni0.253W0.220Tc0.527,Ni,W,0.25253618902043873,0.22007496643677596,2765.413807547688,4495.85074327097,12096.034428864497,2.0037598464511213,1.35,0.0,Tc,0.5273888445427853,ternary
Os0.468Dy0.529Zr0.050,Os,Dy,0.46763606480817954,0.5293791566368727,2782.5967721022494,4492.972078717483,14471.66223492947,1.74114191367498,1.6118404083651607,0.0,Zr,0.05,ternary
Eu0.133Hg0.172Tm0.695,Eu,Hg,0.13268875970875219,0.17221612290562358,1334.6129785549754,1500.316061108705,7285.316233093829,1.3725276541937799,1.7202148452444694,0.0,Tm,0.6950951173856242,ternary
Cu0.289Mo0.287La0.424,Cu,Mo,0.289097764694519,0.2871276509685502,1715.3095185687694,4367.249143462218,8427.032177008683,1.6356335217822786,1.6329775156990136,0.0,La,0.4237745843369308,ternary
Sm0.222Hg0.123Gd0.655,Sm,Hg,0.22227481946726738,0.1230975961800008,1547.5627128848355,2646.8159018220645,7581.292615153784,1.2918098323599825,1.7741844621193632,0.0,Gd,0.6546275843527318,ternary
Eu0.527Nd0.247Mo0.226,Eu,Nd,0.5272177164832813,0.2470913730173848,1471.3239926432097,3115.8297964942212,5778.195729951212,1.4018377916983176,1.7597236358002666,0.0,Mo,0.2256909104993339,ternary
Zn0.127Ta0.498Rh0.376,Zn,Ta,0.1266294875348327,0.49780596002963673,2625.960319380799,3600.950195452045,13497.905971048793,1.8119347740299387,1.3997805960029637,0.0,Rh,0.37556455243553055,ternary
Cu0.543Sc0.205Nd0.252,Cu,Sc,0.5429171438850113,0.20461878674961084,1499.0061768050753,3055.8769477946826,6417.16169212645,1.597633162437523,1.5273867313700917,0.0,Nd,0.2524640693653778,ternary
Fe0.407Sr0.184Dy0.409,Fe,Sr,0.4074432241353133,0.18371677066614403,1754.504454665038,2713.7135692690035,6835.501207211195,1.4189368386426822,1.6533240642191764,0.0,Dy,0.4088400051985427,ternary
Ir0.287Tb0.359Sc0.353,Ir,Tb,0.28713304586182453,0.3594461830864373,2021.53459363223,4682.665701329596,11725.468606455273,1.507735750921459,1.5821336659975094,0.0,Sc,0.3534207710517382,ternary
Nb0.287Ta0.447Tm0.266,Nb,Ta,0.2869393606687921,0.4472548368696013,3062.772009710848,4793.754519383319,12589.605265279033,1.4622424854514777,1.529741740738482,0.0,Tm,0.26580580246160657,ternary
Tm0.234Ba0.300Sr0.465,Tm,Ba,0.23416772924805687,0.3004730352688789,923.7369752053869,1803.2799859065572,4246.837126071009,1.0022219366582843,1.9865290229783177,0.0,Sr,0.46535923548306424,ternary
Nd0.204Tb0.547V0.249,Nd,Tb,0.20359979875209286,0.5474423125498015,1380.7219657904855,3113.1180503256523,5938.222428002934,1.2400916729600797,1.670776824395967,0.0,V,0.24895788869810564,ternary
Mg0.209Rh0.313Pt0.478,Mg,Rh,0.20929686317592497,0.31251142728592796,1861.2890077635686,3770.2821617786512,15926.65747384586,2.0769820427193526,1.3813945294763887,0.0,Pt,0.47819170953814705,ternary
Ir0.568Pr0.287Zr0.145,Ir,Pr,0.5677494534940705,0.28705367764282685,2302.5063110158244,3950.4183178509047,12675.482694145972,1.766531289011276,1.5225662125940342,0.0,Zr,0.14519686886310268,ternary
Ce0.476Fe0.248Cu0.277,Ce,Fe,0.47581137599061485,0.24752400832066426,1098.0505758651723,2959.5440188597113,6924.060917213539,1.511540446144874,1.6002818884113408,0.0,Cu,0.2766646156887209,ternary
Y0.392Re0.333Ru0.275,Y,Re,0.39198111236521194,0.3326265555331933,2532.562981634445,4119.920676471492,12563.254450075985,1.7160705432221344,1.5126218839592656,0.0,Ru,0.27539233210159475,ternary
Eu0.326W0.316Hg0.358,Eu,W,0.3255756015611849,0.3162528314029901,1572.8858233088074,2657.5623270791602,8684.031911885108,1.8533905380561284,1.5665135358359663,0.0,Hg,0.358171567035825,ternary
Os0.237Ba0.112Ta0.651,Os,Ba,0.23650973283637658,0.11235909826891768,2678.106600179527,5441.035330144668,16560.0273729643,1.597017763041424,1.493174908862786,0.0,Ta,0.6511311688947058,ternary
Mg0.423Ru0.280Pd0.298,Mg,Ru,0.4226774263228791,0.27954646759284973,1607.7911265507923,3021.9069910875046,8456.002365917506,1.8238170905726379,1.414313095873003,0.0,Pd,0.2977761060842712,ternary
Fe0.356Cd0.422Sc0.222,Fe,Cd,0.35639549473915955,0.4218271996012293,1175.5025940424393,2202.9452142468967,7317.20894480173,1.6667088583958105,1.5076295410721066,0.0,Sc,0.22177730565961118,ternary
Ag0.159Ru0.280Co0.561,Ag,Ru,0.1592939409291322,0.2801184454496256,1865.7390059581548,3620.8447033105963,10410.00339870616,1.977602599590337,1.375817562959802,0.0,Co,0.5605876136212422,ternary
La0.198Mo0.265W0.537,La,Mo,0.19832316143478199,0.26462064627566795,3534.816219655115,4380.627458870287,14102.717791601608,2.0571886873370406,1.495455961488436,0.0,W,0.53705619228955,ternary
Hf0.523Lu0.195Ho0.282,Hf,Lu,0.5227241176160594,0.19532121831790591,1977.2637598816245,4358.816868402436,9522.394277707432,1.2744035369658404,1.645455176476788,0.0,Ho,0.28195466406603464,ternary
Sm0.435Cu0.533Tm0.050,Sm,Cu,0.43505916442821263,0.5330456220656512,1448.2850582461074,2548.700676848916,7801.656864027441,1.584305904305746,1.6119710439808226,0.0,Tm,0.05,ternary
Al0.484Hf0.479Cd0.050,Al,Hf,0.4842801642810614,0.4785455270314219,1437.8497212863963,3563.6761569046926,8988.972832321622,1.4863002496333573,1.4245957722500306,0.0,Cd,0.05,ternary
Pt0.106Nd0.427Tb0.467,Pt,Nd,0.10594536018373066,0.42704551708939287,1527.0565871767358,3730.870136820235,10470.93503463643,1.2420973457003779,1.750326407635447,0.0,Tb,0.46700912272687645,ternary
Zn0.213Pt0.475Ru0.312,Zn,Pt,0.21346315116932943,0.4745685376594775,1980.850692259848,3376.6493229207035,16111.011817655006,2.120560749869627,1.3344015844414403,0.0,Ru,0.31196831117119306,ternary
Sr0.394Ru0.376Y0.230,Sr,Ru,0.39350181961795183,0.3763076266557771,1709.8973373544036,2987.6997016214727,5697.993727072112,1.4825359828258147,1.6905465505957018,0.0,Y,0.23019055372627106,ternary
Ca0.496Yb0.257W0.248,Ca,Yb,0.495957444183066,0.2565374167479637,1910.9429802844643,2586.8485211917505,7350.109303941253,1.3622607308085959,1.6757958165815652,0.0,W,0.24750513906897031,ternary
Mo0.309Hg0.319Er0.372,Mo,Hg,0.308843932336512,0.31934040058393753,1469.4314672394453,3011.877662505452,6047.0452360665095,1.7668351221933836,1.577511720153062,0.0,Er,0.3718156670795505,ternary
Ce0.169Ti0.537Os0.294,Ce,Ti,0.1694751127716468,0.5368751053822995,2162.790983200166,4436.975557990757,10998.736842841849,1.6626293086543038,1.4468988225626356,0.0,Os,0.2936497818460536,ternary
Hf0.350Lu0.429Al0.221,Hf,Lu,0.3499001056343368,0.42942406398914335,1905.2786454159336,3210.7361671013864,12315.829740259796,1.355526785497047,1.5696820636848727,0.0,Al,0.22067583037651983,ternary
Re0.310W0.443Ru0.248,Re,W,0.30957365790650004,0.4428814029418907,3937.9304479703787,5889.849348250779,16731.926288337854,2.1779889270987525,1.3376227530424196,0.0,Ru,0.24754493915160924,ternary
Pt0.250Er0.393La0.357,Pt,Er,0.2498186041641217,0.3934775427849585,1625.8928565804829,3399.4626887978493,12422.054768485106,1.4498728089035577,1.7214133289445352,0.0,La,0.3567038530509198,ternary
Pr0.177V0.576Cu0.247,Pr,V,0.1768456197427337,0.5763187728608301,1854.310478328179,3263.1690385917523,6572.640614935539,1.6082228041256708,1.438422809871367,0.0,Cu,0.24683560739643617,ternary
W0.449Pr0.526Gd0.050,W,Pr,0.44923536340529613,0.5258187718208344,2640.5745917501417,5414.6774118331905,14449.919038241222,1.7143706697940417,1.6692324684656936,0.0,Gd,0.05,ternary
Pr0.202Pt0.295Ir0.503,Pr,Pt,0.2021023092742736,0.29531807327162196,2391.8986644455404,4184.4806665104925,12809.79533301514,2.007375974938257,1.451051154637137,0.0,Ir,0.5025796174541044,ternary
La0.337Ir0.264Mo0.398,La,Ir,0.3373888273113904,0.26442068133322527,2347.6626737214797,4460.983741546004,12326.282309886752,1.8129446703032555,1.5922523455223727,0.0,Mo,0.3981904913553843,ternary
Mg0.147Gd0.152Hf0.701,Mg,Gd,0.14662075330102317,0.15215658871414336,2145.2635465055096,3603.9844147309404,11391.749632874848,1.2862505486615958,1.5807081095134845,0.0,Hf,0.7012226579848334,ternary
Ce0.513Nb0.402V0.085,Ce,Nb,0.5132374140956422,0.4016819562338789,1954.7265394678832,4479.026261134646,8095.324362973227,1.3561984601242063,1.646786902671209,0.0,V,0.08508062967047891,ternary
Ti0.135Nb0.581Mo0.284,Ti,Nb,0.1347455177878786,0.5814972780119408,2844.4514147034834,4594.4410511831165,8447.487534345113,1.7508193032848287,1.443262724110606,0.0,Mo,0.2837572042001806,ternary
Cd0.246Tc0.362Ru0.392,Cd,Tc,0.24555276430983056,0.36219784867010796,2067.315559053171,3673.0851680227192,12253.58896086108,1.9661087356009541,1.3794980835109631,0.0,Ru,0.3922493870200615,ternary
Ca0.359Cr0.186Os0.455,Ca,Cr,0.35926584009471196,0.18591285842199648,2458.1666508021062,4326.452385927173,14852.5744936806,1.6684880483384679,1.4982242058895556,0.0,Os,0.4548213014832916,ternary
Au0.595Pt0.165Zr0.241,Au,Pt,0.5947975617302356,0.16456883451511342,1656.5498391171286,2257.1222467690227,18560.005470087166,2.2060454424829428,1.3981267207509303,0.0,Zr,0.240633603754651,ternary
Au0.134Sr0.578Lu0.288,Au,Sr,0.13438149537515973,0.5775483828171621,1268.2263845397867,2239.8202406221462,6670.59678091115,1.2558490166249607,1.8406344975542266,0.0,Lu,0.2880701218076781,ternary
Tc0.316Cu0.455Hf0.229,Tc,Cu,0.31610033816805516,0.45483580702838544,1872.1907130086986,4252.180802384936,9066.119077561634,1.7625616871178647,1.3958127709607118,0.0,Hf,0.2290638548035594,ternary
Sr0.388Zr0.255Sm0.357,Sr,Zr,0.3875456919489587,0.2551568679045586,1276.2980074311413,2666.2408579730477,5638.424576687813,1.1255650466359584,1.8315847934209764,0.0,Sm,0.3572974401464827,ternary
Mo0.442Sc0.238Tm0.320,Mo,Sc,0.44241796455888616,0.23772048876323823,2441.143777204782,3336.802734876513,7433.080739468179,1.6787496015125427,1.5816165373178483,0.0,Tm,0.3198615466778756,ternary
Al0.132Zn0.300Mg0.568,Al,Zn,0.13198502147414767,0.29961845727581005,812.0375458178383,1532.6800058992585,4000.975800637778,1.4514657819160197,1.4220609760400915,0.0,Mg,0.5683965212500423,ternary
Rh0.482Y0.502W0.050,Rh,Y,0.4817388501880033,0.5019184624186649,1722.0090810672018,3925.7549421372705,7978.033786166414,1.8287051025794185,1.6213006801074012,0.0,W,0.05,ternary
Ca0.469Pr0.244V0.287,Ca,Pr,0.46864535544478403,0.24395589249692531,1205.9418700965318,3016.189600571176,4325.693714595188,1.2127754798213233,1.6828683561986155,0.0,V,0.2873987520582907,ternary
Ca0.487Re0.480Er0.050,Ca,Re,0.4867391589413326,0.47955916549289207,2394.601918850934,4179.2400880851055,10746.568857539793,1.4599015733778276,1.611035359509803,0.0,Er,0.05,ternary
Pt0.308Eu0.190Nb0.503,Pt,Eu,0.30752637926166804,0.18978905491517714,2122.7538419983316,5025.190424962285,11498.309456261739,1.7332023159318632,1.4951629840399039,0.0,Nb,0.5026845658231548,ternary
Eu0.329Yb0.555Hg0.116,Eu,Yb,0.3289140760327316,0.5554165477271379,1071.228958394542,1481.755057189664,4380.674239259732,1.2369938462193908,1.7539740635432404,0.0,Hg,0.11566937624013052,ternary
Nb0.148Er0.449Pr0.403,Nb,Er,0.14776708555799464,0.4493223784330761,1354.6042479902055,3380.4859055708644,8861.737758201292,1.2488759918398957,1.7459609279334944,0.0,Pr,0.40291053600892923,ternary