formula,element_1,element_2,composition_1,composition_2,melting_point,boiling_point,density,electronegativity,atomic_radius,electronegativity_difference,element_3,composition_3,alloy_type
Mo0.574Mg0.426,Mo,Mg,0.5737625266882946,0.42623747331170536,1934.4993264245725,3475.500713005579,7113.514624335239,1.7976981476850507,1.4713118736655852,0.8500000000000001,,,binary
Ir0.664Al0.336,Ir,Al,0.6637884927677875,0.3362115072322125,1694.9207488634988,4529.660358704146,15406.503609054078,2.001635210732995,1.3163788492767787,0.5900000000000001,,,binary
Tc0.702Ag0.298,Tc,Ag,0.7018603962883934,0.29813960371160664,2161.9362492724426,4379.257171421977,9662.758223940147,1.9089441881113483,1.4245349009279016,0.030000000000000027,,,binary
Mn0.181Pr0.819,Mn,Pr,0.1814016389817139,0.8185983610182861,1174.7130606753685,3243.680465412345,6258.350565945161,1.2061886883723199,1.7683692624582288,0.42000000000000015,,,binary
La0.393Nb0.607,La,Nb,0.3926344235300119,0.6073655764699881,2509.713571384477,4129.798317815574,7195.024501119692,1.403682788234994,1.6463172117650058,0.5,,,binary
Mo0.191Ca0.809,Mo,Ca,0.19116397656412953,0.8088360234358705,1485.2111104348737,2076.4003500800877,3091.4973738588274,1.2217502128143902,1.7330926082025546,1.1600000000000001,,,binary
Dy0.522Ba0.478,Dy,Ba,0.5221720157022262,0.47782798429777384,1398.0943310361724,2423.5073262204996,6084.908409087255,1.0623167651817345,1.9411311937191096,0.32999999999999996,,,binary
Gd0.578Ta0.422,Gd,Ta,0.5775766634263948,0.4224233365736052,2183.208467610063,3780.906566897144,11969.726400798045,1.3267270009720815,1.6521518321992383,0.30000000000000004,,,binary
Eu0.570Pt0.430,Eu,Pt,0.5696037716521744,0.43039622834782565,1768.6535842007772,2794.182840557293,12335.818586269717,1.6648279266156516,1.634801885826087,1.0799999999999998,,,binary
Re0.594Ca0.406,Re,Ca,0.59389014346914,0.40610985653085996,2680.749528616204,3666.0747132684164,15345.555560751585,1.534501129122226,1.532749435438887,0.8999999999999999,,,binary
Ho0.740Tm0.260,Ho,Tm,0.7404907065477658,0.25950929345223417,1791.3236460549413,3248.9844975600213,8276.793329980908,1.2351901858690446,1.75,0.020000000000000018,,,binary
Eu0.168Nd0.832,Eu,Nd,0.16780157489842223,0.8321984251015777,1493.5374611792747,3350.047696036545,6900.528172644088,1.1500680944939052,1.8499999999999999,0.06000000000000005,,,binary
Cu0.194Ta0.806,Cu,Ta,0.19428932212932537,0.8057106778706746,2982.7968377679035,5109.043276871947,16966.726128620798,1.57771572885173,1.4305710677870676,0.3999999999999999,,,binary
Hf0.246Ni0.754,Hf,Ni,0.24643561466518682,0.7535643853348132,1946.6721701075237,2893.8440118990216,8876.426418511066,1.759674275054236,1.3992871229330373,0.6099999999999999,,,binary
Er0.509Zn0.491,Er,Zn,0.5086598955897287,0.4913401044102713,1233.5867768272287,2244.9837775503775,8073.730922642141,1.4414494428082112,1.5534639582358913,0.4099999999999999,,,binary
Au0.210Sm0.790,Au,Sm,0.210293838827646,0.789706161172354,1507.1420031335404,1849.1855803029048,10007.035455249146,1.458102559193875,1.7448530805861773,1.37,,,binary
Ir0.249Hg0.751,Ir,Hg,0.2486029594342125,0.7513970405657875,701.1917023738099,1766.7151484181659,5577.66867954767,2.0497205918868424,1.4627095560848682,0.20000000000000018,,,binary
Gd0.655La0.345,Gd,La,0.6547463412234842,0.3452536587765158,1510.4897687038913,3288.048145351296,8228.459710312598,1.1654746341223483,1.8517880488164773,0.09999999999999987,,,binary
Tb0.544Nb0.456,Tb,Nb,0.5439300606659979,0.4560699393340021,2363.209981785123,4438.198601548566,8270.55700431469,1.328034969667001,1.6131790181997994,0.5,,,binary
Ba0.212Cd0.788,Ba,Cd,0.21223722807823764,0.7877627719217624,719.7917270339581,1184.0326457141964,8205.82378130065,1.5202102175374097,1.6773423368469427,0.7999999999999999,,,binary
Ta0.596Mg0.404,Ta,Mg,0.5955279830313399,0.4044720169686601,2717.375079893039,4388.684758708829,9843.783931270056,1.4231503167759545,1.470223600848433,0.18999999999999995,,,binary
Re0.488Al0.512,Re,Al,0.4876871355565471,0.5123128644434529,2243.3903459730236,3737.5176550724773,12300.371728233913,1.7514292693113989,1.2987687135556547,0.2899999999999998,,,binary
Mo0.871Ir0.129,Mo,Ir,0.8710632715319518,0.12893672846804816,3005.339522516218,3971.4275211499717,10495.335135485751,2.165157469138722,1.4371063271531952,0.040000000000000036,,,binary
Sc0.496Tb0.504,Sc,Tb,0.49597587829312295,0.504024121706877,1672.0342550393264,3205.1872463525683,4942.965842869366,1.228953728356212,1.6756036182560317,0.26,,,binary
Ho0.433Ba0.567,Ho,Ba,0.4325043482192895,0.5674956517807105,1368.7045129270039,2573.7643818753268,5683.191258899029,1.0370514783945584,1.976998260712284,0.33999999999999997,,,binary
Mg0.234Ba0.766,Mg,Ba,0.23380278994244705,0.7661972100575529,907.7786726010042,2166.246890180841,3608.166077284751,0.9881971717758278,1.9980281865374092,0.42000000000000004,,,binary
Pr0.737Ti0.263,Pr,Ti,0.7367047116819418,0.26329528831805815,1333.2487026478339,3344.1433957522686,6376.96638264369,1.2379510682104038,1.731517120256874,0.41000000000000014,,,binary
Ru0.126Cd0.874,Ru,Cd,0.12615606948645663,0.8738439305135434,817.7783517093566,1446.3393970714428,9793.812519930065,1.754339595438093,1.518460982628386,0.5100000000000002,,,binary
Ru0.331La0.669,Ru,La,0.3309362481129704,0.6690637518870296,1343.810528808659,4491.143842627218,8265.387009216129,1.4640298729242676,1.734891438726569,1.1,,,binary
Ca0.694Pr0.306,Ca,Pr,0.6940146015438297,0.30598539845617034,1096.4041851253928,2289.0000234238314,3095.790729163968,1.0397781017993022,1.8152992699228085,0.1299999999999999,,,binary
Ba0.509Ce0.491,Ba,Ce,0.5086447841716468,0.4913552158283532,854.5077077591792,3304.931842342125,5092.978667147241,1.0030116996405214,2.002593435251494,0.2300000000000001,,,binary
Pr0.314Ni0.686,Pr,Ni,0.3143111275143207,0.6856888724856793,1633.8684758800275,3618.9344690618614,7358.285191272435,1.66483732053883,1.5071555637571605,0.78,,,binary
La0.534Os0.466,La,Os,0.5336347032941039,0.4663652967058961,2281.5724047777876,4342.710211911493,14994.834338512599,1.6130018263764858,1.6468625571411675,1.1,,,binary
V0.453Yb0.547,V,Yb,0.4530932637831764,0.5469067362168236,1251.0302362199714,2446.305093481152,5978.088090816309,1.3401394298050835,1.5687626944867294,0.5299999999999998,,,binary
Tc0.182Hg0.818,Tc,Hg,0.18193315110199865,0.8180668488980014,661.183244268842,1403.9246511186448,1944.1795374996907,1.9818066848898002,1.4727100273347002,0.10000000000000009,,,binary
Tb0.338Rh0.662,Tb,Rh,0.33816714808231496,0.661832851917685,1886.723775868672,3768.5804456297333,10031.185466627132,1.8809627652628682,1.4852668592329261,1.1799999999999997,,,binary
V0.310Mg0.690,V,Mg,0.31025217979298214,0.6897478202070179,1424.5474785142746,2004.9907407746653,2194.8775460076063,1.4092806975337542,1.4534621730310526,0.31999999999999984,,,binary
Fe0.792Mg0.208,Fe,Mg,0.7922323763010364,0.20776762369896362,1565.5374545567784,2478.7777959270384,5522.636461431709,1.721960835676539,1.4207767623698964,0.52,,,binary
Ni0.268Rh0.732,Ni,Rh,0.2679025340718193,0.7320974659281807,1840.6991165513411,3799.621394883257,13029.170895593033,2.180876062393427,1.35,0.3699999999999999,,,binary
Lu0.651Nd0.349,Lu,Nd,0.65130686968941,0.34869313031059,1759.4506341418,3353.191483139341,9180.936531202406,1.2246698930596231,1.784869313031059,0.13000000000000012,,,binary
Tm0.606Eu0.394,Tm,Eu,0.6062165047417107,0.39378349525828926,1464.4052877565794,1913.5899068585536,6824.89101432943,1.2303108252370856,1.7893783495258289,0.050000000000000044,,,binary
Zr0.211Eu0.789,Zr,Eu,0.21138797274142088,0.7886120272585792,1085.8867690178386,2315.278932849919,5598.944935461455,1.2274804364563847,1.786583608177574,0.13000000000000012,,,binary
Tc0.556Cr0.444,Tc,Cr,0.5560594758439986,0.4439405241560014,2296.6076962151888,3671.02854601113,8659.868125708766,1.7934542742025594,1.3721970262078,0.24,,,binary
La0.577Ag0.423,La,Ag,0.5774861487076792,0.4225138512923208,1284.3573457577445,2770.1404524781315,8600.779102362421,1.4506864965726263,1.8021201520476877,0.8299999999999998,,,binary
Zr0.883Ta0.117,Zr,Ta,0.8832001251223908,0.11679987487760923,2036.847437816034,4443.013823186564,6566.5084144963375,1.3498559787291935,1.5383200125122392,0.16999999999999993,,,binary
Cd0.314Pr0.686,Cd,Pr,0.3138744530224641,0.6861255469775359,964.4402643092643,3041.3630788441437,7645.7950406308355,1.30576969369258,1.755837664093261,0.56,,,binary
Sc0.752Ho0.248,Sc,Ho,0.7521447246982167,0.2478552753017833,1969.7172924422384,3236.333178090943,3936.6609295661065,1.3277788142107683,1.6371782912952675,0.13000000000000012,,,binary
Cu0.835Au0.165,Cu,Au,0.8350149694638603,0.16498503053613967,1309.595689316764,2939.5362618720524,12047.28432030605,2.0055904195431293,1.35,0.6400000000000001,,,binary
Ag0.202Tb0.798,Ag,Tb,0.2015105348910482,0.7984894651089518,1364.1374826708206,3581.6154907913424,9451.413496464862,1.2672537439595701,1.7197734197663426,0.8299999999999998,,,binary
Cu0.217Rh0.783,Cu,Rh,0.21699475473996907,0.7830052452600309,2420.5907284482564,3645.6118962459495,12516.28633361839,2.1975419931988114,1.35,0.3799999999999999,,,binary
Ta0.709Rh0.291,Ta,Rh,0.7091788699838856,0.2908211300161144,3664.5567191771042,4895.979481781857,13060.206540342122,1.7268404814125693,1.4209178869983887,0.7799999999999998,,,binary
Ho0.492Pt0.508,Ho,Pt,0.49156698073251026,0.5084330192674897,1534.9154591178662,3808.174675850368,12212.761524177835,1.7638546702308642,1.5466267922930044,1.0499999999999998,,,binary
Pr0.315Gd0.685,Pr,Gd,0.3149737216699887,0.6850262783300113,1411.6634430990227,3690.2153533088535,7642.770492152967,1.1779518394831006,1.8157486860834995,0.07000000000000006,,,binary
Au0.462Ir0.538,Au,Ir,0.46159337804029155,0.5384066219597085,2181.0014077354476,4063.7437679329714,23802.53739379262,2.3569417485336994,1.35,0.33999999999999986,,,binary
Gd0.422Fe0.578,Gd,Fe,0.42228061864145683,0.5777193813585432,1552.1885549942922,3074.976077341676,7276.128575903992,1.5639632102558823,1.5689122474565826,0.6300000000000001,,,binary
Lu0.656Ag0.344,Lu,Ag,0.6557628925820357,0.3442371074179643,1827.5432074615237,3540.6085929434607,10518.541539022268,1.4971964908958566,1.6983644338873054,0.6599999999999999,,,binary
Os0.860Ca0.140,Os,Ca,0.8602032630923061,0.1397967369076939,3354.7185777944874,4227.303829556102,22944.623771971932,2.0322439157107675,1.369898368453847,1.2000000000000002,,,binary
Ta0.102Nd0.898,Ta,Nd,0.1019784681135878,0.8980215318864122,1728.7659081503448,3879.27967859794,9195.090715238051,1.1767122485208916,1.809208612754565,0.3600000000000001,,,binary
Yb0.685Fe0.315,Yb,Fe,0.6847455499896424,0.31525445001035757,1103.0709017768888,1889.3290156923147,6467.769706618788,1.330135748507561,1.6396609424963748,0.73,,,binary
Ca0.631Gd0.369,Ca,Gd,0.631315056665474,0.36868494333452595,1381.2288004552067,2155.213469416297,4186.298681663645,1.0737369886669053,1.8000000000000003,0.19999999999999996,,,binary
Re0.737Mn0.263,Re,Mn,0.7365423413182762,0.26345765868172377,3351.9114151005256,5280.945925842422,17945.298481235164,1.8077898194613966,1.3631728829340863,0.34999999999999987,,,binary
Pt0.875Tc0.125,Pt,Tc,0.8745028640606588,0.1254971359393412,1883.6860440298417,3801.503009579223,22371.53491132085,2.23231108834305,1.35,0.3799999999999999,,,binary
Tc0.315Ba0.685,Tc,Ba,0.31482947065153805,0.685170529348462,1563.2278143346143,2885.712562743771,5773.676597324075,1.2079777653580535,1.8981364234787699,1.0099999999999998,,,binary
Cd0.538W0.462,Cd,W,0.537848428356252,0.462151571643748,1616.5683782765916,2904.456807260145,16138.551425102558,1.999641553001311,1.4575696856712503,0.6699999999999999,,,binary
Cu0.782Pr0.218,Cu,Pr,0.781938061030733,0.21806193896926696,1155.4363046768576,3341.2898822773495,9271.37058078708,1.7320923069936645,1.4590309694846335,0.77,,,binary
W0.710Ho0.290,W,Ho,0.7098032179380015,0.2901967820619985,2733.644807919794,5097.745111297277,17736.91578919544,2.0320776362699418,1.4660787128247994,1.13,,,binary
V0.601Co0.399,V,Co,0.6009436177247152,0.39905638227528484,2019.9132040595898,4489.08184277075,6018.07677311694,1.7297640955688212,1.35,0.25,,,binary
Ca0.199Ti0.801,Ca,Ti,0.19938974338431878,0.8006102566156812,1964.3664518383307,3145.1950915668067,4219.796879856459,1.432329538572468,1.4797558973537273,0.54,,,binary
Zr0.465Mg0.535,Zr,Mg,0.4652145087759252,0.5347854912240748,1549.055083197377,2693.9150056198214,4049.116359027632,1.3193042901755185,1.5232607254387962,0.020000000000000018,,,binary
Hg0.897Mo0.103,Hg,Mo,0.8965552549874298,0.10344474501257017,414.9675964070852,1137.561785968361,1095.1185071586067,2.0165511592020113,1.4948277627493716,0.16000000000000014,,,binary
Cu0.341Tb0.659,Cu,Tb,0.3414924035011378,0.6585075964988623,1634.4992957737584,3759.238068105499,8769.333232257495,1.3731939228009105,1.613403038599545,0.7999999999999998,,,binary
Ag0.624Fe0.376,Ag,Fe,0.6236703715350352,0.37632962846496476,1473.2206790347543,2460.3373791468052,8828.518700104349,1.8923670371535035,1.5247340743070072,0.09999999999999987,,,binary
Pd0.397Fe0.603,Pd,Fe,0.3974750141174126,0.6025249858825874,2033.498832703461,3630.5132234319653,9296.368316466562,1.9770657552234425,1.4,0.3700000000000001,,,binary
Tb0.141Zr0.859,Tb,Zr,0.14142982003892401,0.858570179961076,2066.891247018834,4106.797852751881,7544.473479039627,1.2974711413910476,1.5782859640077846,0.22999999999999998,,,binary
Gd0.681Hf0.319,Gd,Hf,0.6807906907763562,0.31920930922364377,2004.023047581139,4722.620376036628,8781.988550817976,1.2319209309223644,1.720197672694089,0.10000000000000009,,,binary
Ru0.624Hg0.376,Ru,Hg,0.6243881827068279,0.37561181729317206,1650.9350092801062,3067.652792637925,8223.009769024131,2.124877636541366,1.3751223634586345,0.20000000000000018,,,binary
Tm0.101Co0.899,Tm,Co,0.10086904295337895,0.899130957046621,1734.8046428882703,2830.7063451379468,9730.661541322304,1.8164525029393712,1.3903476171813516,0.6299999999999999,,,binary
Sr0.206Mn0.794,Sr,Mn,0.2061598336319893,0.7938401663680107,1524.8789166325862,1992.9853342977717,7349.454252258161,1.4263040998208065,1.5236959001791934,0.6000000000000001,,,binary
Ru0.644Y0.356,Ru,Y,0.6439861800972633,0.35601381990273673,2590.7497984756315,4188.712242640513,9634.284101913088,1.8511064564953181,1.4780069099513684,0.9800000000000002,,,binary
Al0.375Er0.625,Al,Er,0.37485932002728595,0.625140679972714,1558.2258225262685,2750.7864711446473,6699.705532378303,1.3786979484100959,1.562570339986357,0.3700000000000001,,,binary
Ni0.655Hg0.345,Ni,Hg,0.6552248008976885,0.34477519910231147,951.9285739570018,2506.711109194921,4925.339136785961,1.941029767919208,1.4017162798653469,0.09000000000000008,,,binary
Sr0.283Mn0.717,Sr,Mn,0.2831574939672346,0.7168425060327654,1594.6030619498974,2071.033050605699,5970.411078301067,1.3801055036196592,1.569894496380341,0.6000000000000001,,,binary
Fe0.745Yb0.255,Fe,Yb,0.7447654670621584,0.2552345329378416,1526.519596131948,2631.0037779023132,8610.913362850733,1.6436787909553758,1.4893320865282447,0.73,,,binary
Co0.394Ta0.606,Co,Ta,0.3940493516980945,0.6059506483019055,2020.9724496081067,5338.133227101183,14055.698221844295,1.649738753645276,1.4105950648301906,0.3799999999999999,,,binary
Hf0.406Cu0.594,Hf,Cu,0.4061768399087219,0.5938231600912781,1603.9750439352924,3463.4502704336155,12497.379285230803,1.6562938960547668,1.4312353679817444,0.5999999999999999,,,binary
Cu0.894Tb0.106,Cu,Tb,0.8943521241971081,0.10564787580289192,1255.337447726023,2859.2471173230997,9852.00255477852,1.8154816993576863,1.3922591503211568,0.7999999999999998,,,binary
Zn0.524Mn0.476,Zn,Mn,0.5244066212373448,0.4755933787626552,1122.4280694281815,1566.6829252763412,7455.015885761816,1.6024406621237346,1.3737796689381327,0.09999999999999987,,,binary
Al0.620Eu0.380,Al,Eu,0.6200161705262455,0.37998382947375453,894.1659341115088,2680.9105780121304,4055.8495103645537,1.4542066299157606,1.4779902976842527,0.41000000000000014,,,binary
Mg0.678Re0.322,Mg,Re,0.6779456210914578,0.32205437890854216,1832.2846142809758,2915.9548565318228,9347.618884242465,1.5000120835560398,1.4516918431637187,0.5899999999999999,,,binary
Gd0.221Lu0.779,Gd,Lu,0.2210993046754248,0.7789006953245752,1849.7682124276653,3211.026100116826,9835.115222846138,1.2545230486727204,1.7610549652337713,0.07000000000000006,,,binary
Au0.649Eu0.351,Au,Eu,0.649252935900592,0.35074706409940803,1515.271774916833,2392.641194431991,13850.480912401672,2.0699989341067933,1.525373532049704,1.34,,,binary
Tc0.817Fe0.183,Tc,Fe,0.8172743564871854,0.18272564351281462,2413.3789105026226,4258.374087699717,9772.871517914411,1.887209204954103,1.3591362821756408,0.06999999999999984,,,binary
Cu0.572Ni0.428,Cu,Ni,0.5716591342092106,0.42834086579078945,1686.4680751721162,3935.0249833722983,9089.708357717074,1.904283408657908,1.35,0.010000000000000009,,,binary
Ir0.871Re0.129,Ir,Re,0.8705989684426113,0.1294010315573887,2576.1213475737377,4100.563009944668,23017.950591659242,2.1611796905327836,1.35,0.30000000000000027,,,binary
Ta0.298Cu0.702,Ta,Cu,0.2982290999708631,0.7017709000291369,2147.508992230498,4142.738040680957,11222.612556597664,1.7807083600116547,1.3798229099970865,0.3999999999999999,,,binary
Tb0.299Fe0.701,Tb,Fe,0.2985336217486657,0.7014663782513343,1653.1514813900249,2889.8436687896424,8642.874739967903,1.612070456123474,1.504486767612033,0.73,,,binary
Sm0.586Yb0.414,Sm,Yb,0.5860744791324186,0.4139255208675814,1355.8685657216672,1542.6905974459253,8146.377651021956,1.1410252135392693,1.808607447913242,0.06999999999999984,,,binary
Er0.778Ti0.222,Er,Ti,0.7783136835519672,0.22168631644803283,1938.0309978986852,3686.499598752795,6974.203612085683,1.30650589493441,1.6724097892431886,0.30000000000000004,,,binary
Dy0.264Hf0.736,Dy,Hf,0.2643565745219536,0.7356434254780464,1975.1898716550793,4273.150553777746,12657.879185927517,1.2788514740382437,1.6028713149043907,0.08000000000000007,,,binary
Sm0.251Sc0.749,Sm,Sc,0.25091721861269256,0.7490827813873074,2001.0400720539885,3046.2092158596697,3981.968026252705,1.3123257284635885,1.662729304653173,0.19000000000000017,,,binary
Pt0.617Cd0.383,Pt,Cd,0.6169358197126933,0.3830641802873067,1334.4122623951307,3286.560441904629,14749.830706176237,2.053992133630489,1.4266128360574615,0.5899999999999999,,,binary
Rh0.409Ba0.591,Rh,Ba,0.4087084598108749,0.5912915401891251,1750.7500900848813,2806.73725852962,8303.32334629566,1.4581047591371161,1.8230332321513,1.3899999999999997,,,binary
Rh0.610Ba0.390,Rh,Ba,0.6104658639069186,0.3895341360930814,1874.3086460342456,3212.479398001582,8501.792759992642,1.7385475508306167,1.6616273088744653,1.3899999999999997,,,binary
Mn0.811Y0.189,Mn,Y,0.8109796224695262,0.18902037753047385,1518.3375201406493,2685.2925716708946,6956.580482655082,1.4876232754149437,1.4756081510121897,0.33000000000000007,,,binary
Al0.847Os0.153,Al,Os,0.8471395213393728,0.15286047866062724,1219.1700328738514,3120.5249823223276,5788.582471005086,1.7001876824097701,1.2576430239330314,0.5900000000000001,,,binary
Cu0.789Ir0.211,Cu,Ir,0.788651203149398,0.21134879685060204,1298.5158873992868,3678.3830161055043,10663.610283737828,1.9634046390551805,1.35,0.30000000000000027,,,binary
Pr0.392Au0.608,Pr,Au,0.39232997027847893,0.6076700297215211,1138.2033753229719,2742.570545012183,11761.898057999488,1.9868147419073448,1.5461649851392396,1.4100000000000001,,,binary
Ho0.710Nb0.290,Ho,Nb,0.7101807503164687,0.28981924968353134,1753.5097471597148,3325.7934333379076,10434.945008078126,1.3372331223829066,1.6630542250949405,0.3700000000000001,,,binary
Mn0.570Ti0.430,Mn,Ti,0.5698907975407396,0.43010920245926043,1611.079924636198,2912.1737668780447,6443.708137608508,1.5456989079754075,1.4,0.010000000000000009,,,binary
Al0.273Pd0.727,Al,Pd,0.27259435081378736,0.7274056491862126,1604.9557947487267,3090.844717203368,8348.272789734683,2.0391693330198657,1.3591108473779319,0.5900000000000001,,,binary
Cr0.505Pt0.495,Cr,Pt,0.5052884834199416,0.4947115165800584,2417.7866120563745,4150.10811253555,11678.566613622019,1.966721140279636,1.375264424170997,0.6199999999999999,,,binary
Gd0.501Tm0.499,Gd,Tm,0.5008391724056601,0.4991608275943399,1527.0860306314544,2793.6708875770864,7779.359816704038,1.224958041379717,1.775041958620283,0.050000000000000044,,,binary