formula,element_1,element_2,composition_1,composition_2,melting_point,boiling_point,density,electronegativity,atomic_radius,electronegativity_difference,element_3,composition_3,alloy_type
Al0.524Ti0.476,Al,Ti,0.5235341174733205,0.47646588252667954,1434.0039087888654,3165.4742014839926,3435.836159345915,1.5766473882231324,1.3214698823790019,0.07000000000000006,,,binary
Ag0.882La0.118,Ag,La,0.8819834785860093,0.11801652141399066,1422.2785285938135,2377.4445058258825,11506.231032838796,1.8320462872263878,1.641305782494897,0.8299999999999998,,,binary
Ti0.751Sc0.249,Ti,Sc,0.7505257767311279,0.24947422326887214,2004.7566692449313,2963.7907322597184,4279.040133417382,1.4950946398116032,1.4498948446537745,0.17999999999999994,,,binary
Ho0.745Hg0.255,Ho,Hg,0.7449341591579431,0.25506584084205686,1067.6678767830451,2539.760789488745,7131.672680196568,1.4264006974483836,1.6862335397894856,0.77,,,binary
Nb0.834Co0.166,Nb,Co,0.834439075567209,0.16556092443279102,2434.151856564487,4774.443065690542,10310.02458545704,1.6463570588411816,1.433443907556721,0.2799999999999998,,,binary
Y0.293Zn0.707,Y,Zn,0.2927750658508066,0.7072249341491934,965.1695651748205,1690.8952593898923,7301.047527728389,1.524106721684153,1.481748779632863,0.42999999999999994,,,binary
Eu0.302Y0.698,Eu,Y,0.3019345570517443,0.6980654429482557,1899.2351430568851,3063.9322968097144,5180.996291162185,1.2139613088589651,1.8150967278525871,0.020000000000000018,,,binary
Re0.736Ag0.264,Re,Ag,0.7359490656667734,0.2640509343332266,3256.9682018546164,4593.809920663056,17354.36796413523,1.9079215280299966,1.4160127335833068,0.030000000000000027,,,binary
Fe0.867Os0.133,Fe,Os,0.8674382353188241,0.13256176468117586,2256.4846637166293,3995.270387877281,10380.59739876262,1.8790478529320351,1.3867438235318823,0.3700000000000001,,,binary
Ca0.295Pr0.705,Ca,Pr,0.29456631535430566,0.7054336846456943,1076.733980921456,3633.294087196317,4867.703504432218,1.09170637900394,1.835271684232285,0.1299999999999999,,,binary
Er0.340Ru0.660,Er,Ru,0.33997971227193846,0.6600202877280615,2255.118085806029,4123.641101914334,12994.625723695142,1.8736194762189393,1.4529908705223724,0.9600000000000002,,,binary
Fe0.893Tb0.107,Fe,Tb,0.8933397642267892,0.10666023577321082,1944.5851343650156,3305.0092869755917,8277.295968959697,1.7521380278855563,1.4373310825206238,0.73,,,binary
Tb0.175V0.825,Tb,V,0.17480040434168753,0.8251995956583125,2095.238434614852,3852.728804447472,4839.839587852063,1.5373557856989055,1.419920161736675,0.5299999999999998,,,binary
Ir0.481Ce0.519,Ir,Ce,0.4808040801055129,0.5191959198944871,1815.915797442755,4246.562867882952,12709.899281613822,1.639268406513954,1.6095979599472436,1.08,,,binary
Gd0.662Al0.338,Gd,Al,0.6622761200152849,0.3377238799847151,1417.694454705096,3209.1365394882273,7223.149809524088,1.338466790793733,1.6142518660084066,0.41000000000000014,,,binary
Fe0.776Ba0.224,Fe,Ba,0.7762638356322625,0.22373616436773747,1885.8813954108527,2776.6219550912647,6793.57332680017,1.6196880054943268,1.567802123275803,0.9400000000000001,,,binary
Tb0.553W0.447,Tb,W,0.552685302360828,0.447314697639172,2534.2722265971893,4337.817470644056,13409.851196348778,1.6636165190253567,1.5710741209443313,1.2599999999999998,,,binary
Co0.835Y0.165,Co,Y,0.8353217723521695,0.16467822764783047,1638.6536503815562,2897.9414097910376,8679.609994197863,1.7713123697524318,1.424105202441524,0.6599999999999999,,,binary
Ru0.821Tc0.179,Ru,Tc,0.8210183672196679,0.17898163278033208,2737.444279682752,4086.1785131708725,13307.8987079427,2.1463055101659005,1.3089490816390168,0.30000000000000027,,,binary
Er0.480Pr0.520,Er,Pr,0.4804002301162187,0.5195997698837813,1399.0405878720799,3445.34148625451,8445.766454196983,1.182844025312784,1.8019599769883783,0.1100000000000001,,,binary
V0.648Mn0.352,V,Mn,0.6475429947709131,0.35245700522908685,1942.4175653835969,3351.364293571071,6249.048397281577,1.6018034395816731,1.3676228502614545,0.07999999999999985,,,binary
Ag0.551La0.449,Ag,La,0.5508078912383868,0.4491921087616132,1192.2031645370944,2960.321374352806,7901.227919057343,1.5571705497278612,1.7572172380665645,0.8299999999999998,,,binary
V0.843Nb0.157,V,Nb,0.8430130890037274,0.1569869109962726,2231.8482839963995,3287.495784252249,6177.125102988336,1.6252903926701119,1.3656986910996274,0.029999999999999805,,,binary
Ta0.869Ti0.131,Ta,Ti,0.8691753519008046,0.13082464809919536,3024.82106490519,5307.4390981197075,14697.667424406836,1.5052329859239677,1.44345876759504,0.040000000000000036,,,binary
Nd0.702Zn0.298,Nd,Zn,0.7018035758774921,0.2981964241225079,1109.8961485817,2849.418039192949,7504.924841999341,1.292080176302479,1.7009017879387462,0.51,,,binary
Tm0.843Pt0.157,Tm,Pt,0.8430999522026628,0.15690004779733724,1732.6466297572695,2214.319363519434,10003.847660667427,1.4116070492312573,1.687239980881065,1.0299999999999998,,,binary
Hf0.551Zr0.449,Hf,Zr,0.551166559699012,0.44883344030098804,2222.513745525424,4620.393786696621,9468.490104004975,1.3134650032090298,1.55,0.030000000000000027,,,binary
Pr0.642Ir0.358,Pr,Ir,0.6416279727013454,0.3583720272986546,1528.9829622000254,3789.7096606235455,12602.097612082693,1.5134580692095605,1.6708139863506728,1.0700000000000003,,,binary
La0.407W0.593,La,W,0.4070769712663249,0.5929230287336751,2835.7526627677025,4701.68994694233,13340.949502037836,1.8470830162044305,1.594246182759795,1.2599999999999998,,,binary
Lu0.732Cu0.268,Lu,Cu,0.7323984681873199,0.2676015318126801,1608.8854621237122,3536.735002858429,8780.51082817073,1.4385889650419885,1.642959387274928,0.6299999999999999,,,binary
Er0.163Yb0.837,Er,Yb,0.16274215281482246,0.8372578471851775,1281.1810186656369,1430.1667931810402,6725.319402609623,1.122783901394075,1.75,0.1399999999999999,,,binary
Lu0.143Re0.857,Lu,Re,0.1429571455579149,0.8570428544420852,3337.2535959675342,5657.478567854371,24652.260292993305,1.8099369982985138,1.4071828582231662,0.6299999999999999,,,binary
Hg0.771Ru0.229,Hg,Ru,0.77093972609054,0.22906027390946004,805.0144120502746,1348.2521197023761,2806.4260268921694,2.045812054781892,1.454187945218108,0.20000000000000018,,,binary
W0.715Sm0.285,W,Sm,0.7152045226923539,0.2847954773076461,2488.2863348647284,4721.086342667316,14540.412332444555,2.021093382003901,1.4923977386538232,1.19,,,binary
Sm0.875Pt0.125,Sm,Pt,0.875136421761244,0.12486357823875605,1563.0347637128045,2200.515122535111,8962.364711298662,1.308598571845019,1.7875682108806221,1.1099999999999999,,,binary
Ta0.607Ti0.393,Ta,Ti,0.607298357923788,0.39270164207621205,2584.815918630125,5726.733757301332,11499.741810426925,1.5157080656830484,1.4303649178961892,0.040000000000000036,,,binary
Mg0.283Ba0.717,Mg,Ba,0.28251071188337323,0.7174892881166268,1157.5159586720147,2079.173853028937,3154.4637465007995,1.008654498991017,1.9663680372758074,0.42000000000000004,,,binary
Ce0.445Ir0.555,Ce,Ir,0.44547835699163574,0.5545216430083643,2068.153387935476,4391.617495705581,12544.17074136972,1.7188833744490335,1.572739178495818,1.08,,,binary
Ho0.629Nd0.371,Ho,Nd,0.6285375260119004,0.3714624739880996,1527.8396073907948,3399.0414107846473,8014.550903542761,1.196568377341071,1.78714624739881,0.09000000000000008,,,binary
Fe0.336Eu0.664,Fe,Eu,0.336303584564061,0.663696415435939,1150.3707768138163,2236.845165174033,7172.835816842587,1.4118712582753585,1.6986633869461727,0.6300000000000001,,,binary
Rh0.159Tm0.841,Rh,Tm,0.15880534697793725,0.8411946530220628,2119.52110196505,2484.613613039798,10752.025500112564,1.4135695073872752,1.6864778612088251,1.0299999999999998,,,binary
Ag0.404Zn0.596,Ag,Zn,0.4039999944667646,0.5960000055332354,878.3327561782147,1399.5734497981528,7708.214040819328,1.763119998450694,1.4509999986166913,0.28,,,binary
Gd0.692Zn0.308,Gd,Zn,0.6917242311812757,0.3082757688187243,1514.6451924399016,2723.9723606984044,7479.8141938984445,1.338724095968426,1.661275904031574,0.44999999999999996,,,binary
Ta0.185Os0.815,Ta,Os,0.1852407341690089,0.8147592658309911,3203.998508160996,6389.685030256263,25002.746813352984,2.070331486081694,1.3277861101253514,0.7000000000000002,,,binary
Al0.456Hf0.544,Al,Hf,0.4557886919970363,0.5442113080029637,2186.2557714082177,3863.6930474411374,8724.59659314355,1.4412944945190813,1.413263392400889,0.31000000000000005,,,binary
Ag0.206Co0.794,Ag,Co,0.20600560359535952,0.7939943964046405,1406.6972620541094,3491.7490868612686,8149.97461720744,1.890300280179768,1.40150140089884,0.050000000000000044,,,binary
Nb0.459Hg0.541,Nb,Hg,0.4590749416171612,0.5409250583828388,1419.3202329046437,2353.781387373628,3702.5960081407866,1.8163700233531355,1.477046252919142,0.3999999999999999,,,binary
Ce0.426Sc0.574,Ce,Sc,0.42643534006651007,0.5735646599334899,1370.6348877153835,3126.6484036918155,4318.433052222764,1.2576555183840377,1.7066088350166275,0.24,,,binary
Ti0.383Fe0.617,Ti,Fe,0.3831314298762071,0.6168685701237929,1758.7848400273454,3571.9820122808815,5856.555202051538,1.7188918853359,1.4,0.29000000000000004,,,binary
Fe0.578Sm0.422,Fe,Sm,0.5784350382354183,0.4215649617645817,1650.1582599676244,3015.3697747982424,7261.545443564141,1.5517671252353762,1.5897042327940616,0.6600000000000001,,,binary
Ta0.110Ir0.890,Ta,Ir,0.10987249190716356,0.8901275080928365,2598.555496348076,4703.190223920647,24585.07103644906,2.123089255664986,1.3609872491907165,0.7000000000000002,,,binary
Au0.723Ir0.277,Au,Ir,0.7233352844995231,0.2766647155004769,1758.6085784913507,3374.596570818773,21205.555718392334,2.445933996729838,1.35,0.33999999999999986,,,binary
Yb0.824Ce0.176,Yb,Ce,0.8241660594506871,0.1758339405493129,971.5414459668069,1975.5224054566606,6860.23421977873,1.1035166788109865,1.7675833940549313,0.020000000000000018,,,binary
Rh0.517Pr0.483,Rh,Pr,0.5168836246107991,0.48311637538920094,1686.3184772271977,3455.994971665159,8788.059123333334,1.7244161683024188,1.5915581876946006,1.15,,,binary
Ho0.236Ir0.764,Ho,Ir,0.23560139619612724,0.7643986038038728,2636.0436922771614,4826.881491110974,18150.27425806407,1.9714666456897567,1.444240558478451,0.9700000000000002,,,binary
Ag0.315Hf0.685,Ag,Hf,0.31472543771936856,0.6852745622806314,2202.4964329289232,3250.4555963444996,11696.234394199293,1.498277025763202,1.5657362718859686,0.6299999999999999,,,binary
Zn0.234Mn0.766,Zn,Mn,0.23376592060730614,0.7662340793926938,1321.7166438722663,1876.4541721528567,6700.511452302052,1.5733765920607305,1.3883117039696347,0.09999999999999987,,,binary
Ag0.340Au0.660,Ag,Au,0.3398018031372506,0.6601981968627494,1215.553717954728,2977.7140927692167,16000.88093322104,2.332720900086277,1.4349504507843127,0.6100000000000001,,,binary
Mn0.301Os0.699,Mn,Os,0.3013597902311223,0.6986402097688778,2148.0462634497367,3463.4937949122973,16952.178139489923,2.004116136349771,1.3301359790231122,0.6500000000000001,,,binary
Rh0.600Yb0.400,Rh,Yb,0.6000269502151158,0.39997304978488424,1862.5461103830917,2152.8795070159645,9593.523016299545,1.8080318012538366,1.5099892199139537,1.1799999999999997,,,binary
Sm0.256Eu0.744,Sm,Eu,0.2564385799042084,0.7435614200957916,1100.929475001298,2130.5040930953655,5562.100432161948,1.1923068426028736,1.85,0.030000000000000027,,,binary
Co0.344Cu0.656,Co,Cu,0.34372639660100557,0.6562736033989944,1556.1783832277217,3245.202284827988,7014.124835957602,1.8931254720679798,1.35,0.020000000000000018,,,binary
Pt0.773W0.227,Pt,W,0.7732907093774807,0.22670929062251932,2601.9073543403865,4586.924564002085,21723.591289342956,2.298136743249801,1.35,0.08000000000000007,,,binary
Ir0.452W0.548,Ir,W,0.45217833718500267,0.5478216628149973,4543.737960835369,4209.981427389847,24372.6033547199,2.2876514660503995,1.35,0.1599999999999997,,,binary
Hg0.879Tb0.121,Hg,Tb,0.8793803012036855,0.12061969879631451,390.97480000854785,1004.4906651188967,986.861341905382,1.891442271083317,1.5301549246990787,0.8999999999999999,,,binary
Cu0.357Hf0.643,Cu,Hf,0.3565321243000702,0.6434678756999298,2007.6729181608596,4034.6518674254876,12131.826184053356,1.513919274580042,1.4786935751399861,0.5999999999999999,,,binary
Er0.483Mo0.517,Er,Mo,0.48320779391636426,0.5167922060836357,2008.1994218516377,4360.691845935934,9289.952447322801,1.7154488295969448,1.5949623381749092,0.9200000000000002,,,binary
Nb0.875Pt0.125,Nb,Pt,0.8749801773973565,0.12501982260264355,2360.653061967088,4681.5056746650525,11409.40011007699,1.6850134793697975,1.4374980177397356,0.6799999999999997,,,binary
Cd0.656Lu0.344,Cd,Lu,0.6559662141376881,0.3440337858623119,995.7331780474284,2016.3030629701047,8397.516548177375,1.545505809937829,1.6188067571724625,0.41999999999999993,,,binary
Ba0.726Pr0.274,Ba,Pr,0.7255794956828612,0.2744205043171388,1137.1978272531385,2706.2940924267573,5176.581579683319,0.9558609210361133,2.0676738487048585,0.23999999999999988,,,binary
Ta0.324Ir0.676,Ta,Ir,0.324240117171374,0.675759882828626,2866.4327793174807,5371.632829764124,20907.603815720973,1.9730319179800384,1.3824240117171376,0.7000000000000002,,,binary
Pt0.191Os0.809,Pt,Os,0.1911102588895985,0.8088897411104015,3461.4188033152705,4694.555765973327,23982.32793885419,2.215288820711168,1.3095555129444798,0.07999999999999963,,,binary
Pr0.574Mo0.426,Pr,Mo,0.5737816274003084,0.42621837259969164,1889.929553855955,4111.407718598976,8266.593326372295,1.5690049237776824,1.6795126509601233,1.0300000000000002,,,binary
La0.645Nb0.355,La,Nb,0.6453701065040701,0.3546298934959299,1789.1786975189348,4146.042742921692,7156.042820309796,1.277314946747965,1.7726850532520348,0.5,,,binary
Ce0.862Ti0.138,Ce,Ti,0.8624036891890369,0.13759631081096313,1375.621191231226,3979.9795021338264,6944.047280770031,1.1777904505406047,1.7880816601350666,0.41999999999999993,,,binary
Ca0.268Tm0.732,Ca,Tm,0.26771871708902684,0.7322812829109732,1555.5501950168534,1911.6587366005444,7932.2487450592935,1.1830703207277433,1.7633859358544512,0.25,,,binary
Cd0.155Er0.845,Cd,Er,0.15532693755010102,0.844673062449899,1755.828158215791,3229.1645494403233,8457.717840051864,1.3098971218975457,1.71893461248998,0.44999999999999996,,,binary
Au0.499Ho0.501,Au,Ho,0.4994425722311683,0.5005574277688317,1500.6300556274884,2559.090516632786,13490.550257444187,1.8842697696228305,1.5502229711075328,1.31,,,binary
Gd0.294Hf0.706,Gd,Hf,0.2936169341366391,0.706383065863361,2458.369994640574,4269.805309794485,12472.585275049358,1.2706383065863363,1.6234042335341599,0.10000000000000009,,,binary
Dy0.672Zn0.328,Dy,Zn,0.672189113039541,0.327810886960459,1330.5069471711126,2370.232039633946,7160.153381916443,1.3609586813929972,1.6188756452158164,0.42999999999999994,,,binary
Ir0.459Mn0.541,Ir,Mn,0.45925337666690713,0.5407466233330929,2097.006627684149,2397.769350905429,14171.560801622709,1.8485146948334896,1.3770373311666546,0.6500000000000001,,,binary
Sm0.566Sr0.434,Sm,Sr,0.5657952153730695,0.43420478462693046,1018.4957361223746,2121.5186416968736,5714.451678190733,1.0744749473820754,1.9151307176940395,0.21999999999999997,,,binary
La0.839Sc0.161,La,Sc,0.8387966032051574,0.16120339679484263,1353.4528751965668,4193.450209173748,5101.58533288162,1.1419128831666592,1.893578811121805,0.26,,,binary
Er0.535Au0.465,Er,Au,0.5349161627099822,0.4650838372900178,1863.001986986406,3427.700107610952,13498.614504569678,1.8446089884770231,1.5639664650839928,1.3,,,binary
Os0.816Er0.184,Os,Er,0.8164012122887193,0.1835987877112807,3373.9452721994917,4350.235751111127,18464.14030183138,2.023745163797171,1.3826194544700763,0.9600000000000002,,,binary
La0.611Sm0.389,La,Sm,0.6105442936086729,0.3894557063913271,1175.9898285323698,2930.123412923418,5917.0467843191855,1.1272618994473929,1.9110544293608673,0.06999999999999984,,,binary
Fe0.715Co0.285,Fe,Co,0.7151632383360325,0.28483676166396754,2018.7543329130797,3071.1876309495674,8454.10662348867,1.8442418380831986,1.3857581619168016,0.04999999999999982,,,binary
Dy0.233Re0.767,Dy,Re,0.23307079462408922,0.7669292053759108,2870.7311653175593,4223.0458788060005,18603.017846975694,1.7415118596556192,1.443228317849636,0.6799999999999999,,,binary
Eu0.551V0.449,Eu,V,0.5505762337661279,0.44942376623387215,1282.8581896959804,2626.7635471853782,4862.401619575105,1.393252219480565,1.625288116883064,0.42999999999999994,,,binary
Tb0.617Ho0.383,Tb,Ho,0.6173948848224743,0.3826051151775257,2000.884387975379,3609.338458833673,8528.630195218102,1.1497386649730785,1.75,0.1299999999999999,,,binary
W0.185Hg0.815,W,Hg,0.18475564128486976,0.8152443587151302,984.1102244029028,1455.675580681428,3749.837040911487,2.066512030862553,1.4722866538072694,0.3599999999999999,,,binary
Co0.278Pd0.722,Co,Pd,0.2776008636395707,0.7223991363604293,1847.5733318428613,3311.179415299204,12575.496747791689,2.1111677236353374,1.3861199568180214,0.3200000000000003,,,binary
Lu0.546Y0.454,Lu,Y,0.5463947330744164,0.45360526692558356,2004.6639614773794,3750.30361908176,6180.050987257576,1.2473197366537208,1.7726802633462793,0.050000000000000044,,,binary
Er0.277Pr0.723,Er,Pr,0.27682538894282904,0.723174611057171,1240.674236330106,3403.891982442938,7379.848337007102,1.160450792783711,1.8223174611057171,0.1100000000000001,,,binary
Os0.470Pt0.530,Os,Pt,0.47045056684221165,0.5295494331577884,2338.3725863336595,5779.403936524878,25111.59496744318,2.242363954652623,1.3264774716578895,0.07999999999999963,,,binary
Ho0.652Nd0.348,Ho,Nd,0.6523498445777045,0.3476501554222955,1677.336629577463,3147.619349431511,7929.518159937402,1.1987114860119934,1.7847650155422294,0.09000000000000008,,,binary
Zn0.898Re0.102,Zn,Re,0.8981621803317228,0.10183781966827721,881.6414435841319,1670.3600682421798,8773.977802560123,1.6754594549170692,1.35,0.25,,,binary
Sr0.336Co0.664,Sr,Co,0.33634577641472474,0.6636542235852753,1336.9485171955728,2769.916610260629,6685.6738232027765,1.567198427934306,1.568624754669571,0.9299999999999999,,,binary
Fe0.765Ni0.235,Fe,Ni,0.7650541957657108,0.23494580423428923,1449.7158699793395,2875.521371430682,7781.213081485573,1.848795664338743,1.3882527097882855,0.07999999999999985,,,binary
Yb0.379Zn0.621,Yb,Zn,0.3786629218571802,0.6213370781428198,1005.4380266131394,1361.1974134453144,5999.453043327467,1.4417353929785508,1.5014651687428722,0.5499999999999998,,,binary
W0.727Ca0.273,W,Ca,0.7274159980229576,0.27258400197704236,3137.14236888516,3988.2444578565423,15987.07350287826,1.9892857573112224,1.4726628008896692,1.3599999999999999,,,binary
Y0.379Sr0.621,Y,Sr,0.37864023730851726,0.6213597626914827,1270.7722817307326,2372.4384390916716,3768.6082275510053,1.0522328640732996,1.9242719525382965,0.27,,,binary
Co0.678Mg0.322,Co,Mg,0.6775951546237663,0.3224048453762337,1303.0638534065183,2243.409880235605,6206.2898874273205,1.6962292381355466,1.398360726806435,0.5699999999999998,,,binary
Mg0.154Ta0.846,Mg,Ta,0.15373947203316735,0.8462605279668327,3229.9385671584564,4290.758007151181,10291.187437605211,1.4707895003136982,1.4576869736016584,0.18999999999999995,,,binary
V0.192Tm0.808,V,Tm,0.19206821335902877,0.8079317866409712,1802.921372847826,2640.935468096121,9749.009076945536,1.3229859210764308,1.6731727146563884,0.3799999999999999,,,binary
W0.187Tb0.813,W,Tb,0.18749014542781905,0.812509854572181,1922.964884281891,3776.857161648699,11474.244995372506,1.336237583239052,1.6750039418288725,1.2599999999999998,,,binary
Zr0.295Lu0.705,Zr,Lu,0.2951303572415942,0.7048696427584058,1613.7842893523286,3817.8681923523523,9026.897503530656,1.2877078214344957,1.6909739285516812,0.06000000000000005,,,binary
Nb0.228Ce0.772,Nb,Ce,0.22810856897228746,0.7718914310277125,1516.890734036768,3747.3947753286984,7142.587579096004,1.229492113106698,1.7587565724110852,0.48,,,binary
Ce0.867Hg0.133,Ce,Hg,0.8667700973871598,0.13322990261284018,718.8136603720735,3020.0898401175523,6060.761604787001,1.2372423142992994,1.803369534085506,0.8799999999999999,,,binary
Ru0.604Pt0.396,Ru,Pt,0.603808255102943,0.396191744897057,2148.8417334532587,4319.566909613163,16531.958453767347,2.2316953395917647,1.319809587244853,0.07999999999999963,,,binary
Nb0.626Gd0.374,Nb,Gd,0.6258463289268879,0.37415367107311215,2234.841286743246,4534.007410257672,7518.7274294895315,1.450338531570755,1.5809537848755892,0.40000000000000013,,,binary
Pt0.690Ti0.310,Pt,Ti,0.6899106956369098,0.31008930436309023,1968.7326494026597,4171.058423444721,16198.126232801904,2.050533914771313,1.3655044652181545,0.7399999999999998,,,binary