formula,element_1,element_2,composition_1,composition_2,melting_point,boiling_point,density,electronegativity,atomic_radius,electronegativity_difference,element_3,composition_3,alloy_type
Ir0.230Zn0.770,Ir,Zn,0.2297977696707604,0.7702022303292396,1132.8112007328634,2105.8182640021905,10195.818773258377,1.7763887733189183,1.35,0.5500000000000003,,,binary
Er0.747Eu0.253,Er,Eu,0.7472349757114409,0.25276502428855907,1765.8315471033684,2424.892929122506,8202.29867819584,1.2298893990284576,1.775276502428856,0.040000000000000036,,,binary
Zr0.450Yb0.550,Zr,Yb,0.45013872411067746,0.5498612758893225,1863.777878112441,2623.669557590371,6099.963337254839,1.203531906545456,1.6599722551778644,0.22999999999999998,,,binary
Au0.641Os0.359,Au,Os,0.6410903377508264,0.35890966224917364,2148.942550926392,3972.8965754510796,21206.361613239776,2.417970714835281,1.3320545168875413,0.33999999999999986,,,binary
Rh0.588Mg0.412,Rh,Mg,0.5884763377006527,0.41152366229934734,1779.2366615263531,3079.7949821304037,8934.1523463674,1.880822047569633,1.411728549344902,0.9699999999999998,,,binary
Lu0.287Mg0.713,Lu,Mg,0.2872023554683396,0.7127976445316604,1260.396650748969,1978.1086334615973,4338.615393535656,1.2985119057812664,1.571800588867085,0.040000000000000036,,,binary
Rh0.872Hf0.128,Rh,Hf,0.8724773097552292,0.1275226902447708,2702.8244722044574,4029.6257580338865,11335.692913811314,2.1550277635601245,1.3755045380489541,0.9799999999999998,,,binary
Sr0.394Mo0.606,Sr,Mo,0.3942727665800263,0.6057272334199737,2408.2066561352985,3584.181075355772,5685.626733430279,1.6829299524381682,1.6668500216190143,1.2100000000000002,,,binary
Pr0.469Mg0.531,Pr,Mg,0.4693439827527913,0.5306560172472087,1146.3154254387373,2267.315856478024,4002.160307608187,1.2255180831044976,1.664270393963477,0.18000000000000016,,,binary
Cd0.502Ir0.498,Cd,Ir,0.5023253531900632,0.4976746468099368,1716.7852319501562,2916.5076404259185,16725.42753269706,1.9438140698730677,1.4504650706380127,0.5100000000000002,,,binary
Au0.754Zr0.246,Au,Zr,0.7535129916649921,0.24648700833500792,1465.4937953091942,3691.9865269060338,15728.570041917752,2.2417507199146405,1.3992974016670017,1.21,,,binary
Sm0.798Cu0.202,Sm,Cu,0.7984015360474778,0.20159846395252223,1447.1346223492353,2444.290985648419,6951.52575844558,1.3171668786853412,1.749200768023739,0.73,,,binary
Cr0.484Tb0.516,Cr,Tb,0.48447252436946,0.51552747563054,2101.8405278505966,3058.946833638251,8318.155964244836,1.3713046136468976,1.580434616470689,0.5599999999999998,,,binary
Os0.847Ce0.153,Os,Ce,0.8474348431979998,0.15256515680200022,3073.4436767073753,5958.113286747756,19730.033212968494,2.03522963065384,1.3839108362411003,1.08,,,binary
Tm0.781Y0.219,Tm,Y,0.780932838467823,0.21906716153217698,1750.4773256907024,2521.7204756602846,8008.354932690031,1.2434279851540346,1.7609533580766088,0.030000000000000027,,,binary
Cd0.710Fe0.290,Cd,Fe,0.7104934642333527,0.2895065357666473,1022.199124698884,1380.1453202649518,7537.579356367991,1.7305309150073307,1.5065740196350028,0.14000000000000012,,,binary
Ag0.824Mg0.176,Ag,Mg,0.824244967182593,0.175755032817407,1054.0945909272941,2460.0858156014106,10483.09745508208,1.8210318796532075,1.5824244967182592,0.6199999999999999,,,binary
Zn0.173Hg0.827,Zn,Hg,0.17337085572727473,0.8266291442727253,310.5087924099461,713.0108990633823,1246.5394423663795,1.939320200495454,1.4739943716409087,0.3500000000000001,,,binary
Ru0.808Mg0.192,Ru,Mg,0.807703818974406,0.19229618102559398,2548.4501749901383,3478.9732934562817,10571.63506339649,2.0288563988872217,1.3384592362051189,0.8900000000000001,,,binary
Ti0.143Au0.857,Ti,Au,0.1426055097368596,0.8573944902631404,1562.2279241516194,3350.3352142995263,17516.335772320097,2.39739449026314,1.357130275486843,1.0,,,binary
Sc0.289Os0.711,Sc,Os,0.28862245909074613,0.7113775409092539,3163.2136110122374,3396.810124438247,18094.497131006614,1.9575571343637734,1.386586737727224,0.8400000000000001,,,binary
Fe0.280Os0.720,Fe,Os,0.27963100688569276,0.7203689931143072,2699.0577502208916,3826.134278212255,19434.538243394156,2.096536527452294,1.3279631006885693,0.3700000000000001,,,binary
Ta0.771Co0.229,Ta,Co,0.7713410300892846,0.22865896991071544,3346.108788397121,5081.447041756369,16295.569537161238,1.586890408566072,1.4271341030089286,0.3799999999999999,,,binary
Tb0.733W0.267,Tb,W,0.7331045099857408,0.26689549001425916,2531.9482143885075,4665.741198822899,12993.836914701165,1.4362883174179666,1.6432418039942964,1.2599999999999998,,,binary
Cu0.330V0.670,Cu,V,0.32950351785061455,0.6704964821493855,2052.9105954242427,3548.404819377138,5908.776976981532,1.7189659498196659,1.35,0.27,,,binary
Sr0.765Er0.235,Sr,Er,0.7648883887457412,0.23511161125425883,1196.6168888759373,1835.3575428345735,5042.638612320271,1.0181823672637351,1.9412220971864353,0.29000000000000004,,,binary
Tm0.459Sr0.541,Tm,Sr,0.4588811791857973,0.5411188208142027,1377.7541543932518,1939.2461709470228,6014.741258170104,1.087664353755739,1.8852797052035508,0.30000000000000004,,,binary
Al0.115Fe0.885,Al,Fe,0.1152031079287763,0.8847968920712237,1717.3614243667184,3619.1511230992774,6824.77870482186,1.8046553162556693,1.3827195338106835,0.21999999999999997,,,binary
Tc0.539Zn0.461,Tc,Zn,0.5390433963550684,0.46095660364493163,1660.8757531366243,2768.101021575165,8237.497588973403,1.7847608490887672,1.35,0.25,,,binary
Yb0.522Sm0.478,Yb,Sm,0.5222172047093795,0.4777827952906205,1141.1302038509007,1752.499331708555,6645.9920023250215,1.1334447956703433,1.7977782795290622,0.06999999999999984,,,binary
Ni0.290Cd0.710,Ni,Cd,0.29011218131274696,0.709887818687253,859.2230039361534,1428.7691080002162,8652.340586029839,1.7538246798888042,1.4919775637374506,0.21999999999999997,,,binary
Ni0.291Cr0.709,Ni,Cr,0.29075160276785816,0.7092483972321418,1740.3262277032763,3243.4702608292328,7717.148623173405,1.7326879006919644,1.385462419861607,0.25,,,binary
Gd0.466Eu0.534,Gd,Eu,0.4656908933091589,0.5343091066908411,1132.1527172093208,2521.91729012188,5993.842510825498,1.2,1.8267154553345422,0.0,,,binary
Ni0.577Ba0.423,Ni,Ba,0.5773912342551576,0.4226087657448424,1465.6744770762714,3113.2020683108026,5384.126488080396,1.4789390589402607,1.688087012595874,1.02,,,binary
Ti0.512Gd0.488,Ti,Gd,0.5123005841675249,0.4876994158324751,1787.7084757289897,3485.236804074632,6575.948477951119,1.3741821986169585,1.59507976633299,0.3400000000000001,,,binary
Rh0.215Tm0.785,Rh,Tm,0.21486147219700805,0.785138527802992,1948.7054482292617,2402.5766545658016,9674.461327632884,1.4713073163629182,1.6640554111211967,1.0299999999999998,,,binary
Hg0.592Al0.408,Hg,Al,0.5918476662207606,0.40815233377923943,478.3118559848807,1675.0847287726135,1104.3598689723233,1.8408205898260968,1.39796191655519,0.3899999999999999,,,binary
Rh0.433Pr0.567,Rh,Pr,0.43325407616683187,0.5667459238331681,1968.240866613025,3715.790050319042,8508.503499959485,1.6282421875918565,1.6333729619165842,1.15,,,binary
Dy0.519Fe0.481,Dy,Fe,0.5187876461425691,0.4812123538574309,1479.1925237325927,2443.8745871918177,6922.232693284276,1.5135395358530328,1.5815756761498991,0.6100000000000001,,,binary
Os0.863Mn0.137,Os,Mn,0.862722942388412,0.13727705761158804,3142.444975422459,5128.1478932126865,17285.183838011933,2.110769912552468,1.3137277057611587,0.6500000000000001,,,binary
La0.729Sc0.271,La,Sc,0.7291298686762541,0.27087013132374593,1483.0438933676562,3397.2075601801316,5367.42978165859,1.170426234144174,1.8551954540366888,0.26,,,binary
Sc0.116Ce0.884,Sc,Ce,0.11626744503053264,0.8837325549694673,1340.904355576606,3891.673497147259,6090.289629539064,1.1479041868073279,1.8209331387423668,0.24,,,binary
Sr0.609V0.391,Sr,V,0.608536633174904,0.39146336682509597,1360.4259408889295,1921.0105962882503,3705.1854750848775,1.2161950894410651,1.7455488115636877,0.6799999999999999,,,binary
Os0.698Pd0.302,Os,Pd,0.6978532732501163,0.30214672674988374,2799.0707727857016,4205.2931273666645,19156.387439529677,2.2,1.3302146726749884,0.0,,,binary
Re0.376Mn0.624,Re,Mn,0.3758419945307131,0.6241580054692869,2265.410798416105,3580.2456661499496,11746.082947007724,1.6815446980857496,1.3812079002734645,0.34999999999999987,,,binary
Yb0.603Dy0.397,Yb,Dy,0.6026055699805252,0.39739443001947483,1351.0897777239825,2102.826998551416,6555.005773201558,1.147687331602337,1.75,0.11999999999999988,,,binary
Nd0.705Lu0.295,Nd,Lu,0.7053431411535657,0.29465685884643433,1691.1509657208676,3427.855294336913,7710.558274660531,1.1783053916500363,1.8205343141153567,0.13000000000000012,,,binary
Cu0.382V0.618,Cu,V,0.3818392368913516,0.6181607631086484,2000.181810851925,3578.2662512566835,7867.603274135693,1.7330965939606648,1.35,0.27,,,binary
W0.240Tb0.760,W,Tb,0.24007130164136675,0.7599286983586333,2186.0008299126594,3812.444805713511,11260.080598329117,1.4024898400681223,1.6539714793434532,1.2599999999999998,,,binary
Ho0.885Ca0.115,Ho,Ca,0.8846553486310794,0.11534465136892058,1472.4455516231546,2881.378238663971,7932.879161331786,1.2034707301851482,1.7557672325684461,0.22999999999999998,,,binary
Sr0.246Gd0.754,Sr,Gd,0.24582239873109862,0.7541776012689014,1423.2355433024693,3024.4223880962086,5362.258006165545,1.1385444003172254,1.8491644797462197,0.25,,,binary
Cu0.673Mn0.327,Cu,Mn,0.6728360460769557,0.3271639539230443,1333.119972995463,2943.7558655383573,8580.620777329734,1.7854926161269344,1.3663581976961523,0.34999999999999987,,,binary
Ca0.335V0.665,Ca,V,0.334754056940025,0.665245943059975,1637.8823514620155,3420.570763443143,4186.508396367828,1.4191049441277843,1.5006393256230113,0.6299999999999999,,,binary
V0.809Mo0.191,V,Mo,0.8086323084944841,0.1913676915055159,2544.305445594315,4083.0442688025805,6461.589236390351,1.7314248764979234,1.3691367691505518,0.5300000000000002,,,binary
Ta0.512Hf0.488,Ta,Hf,0.5123068714035991,0.4876931285964009,3423.8466080506278,4679.721091886295,16401.77608123551,1.40246137428072,1.4987693128596402,0.19999999999999996,,,binary
La0.303Sr0.697,La,Sr,0.3026510121620939,0.6973489878379061,1202.6706678273852,2133.568809593117,4208.514483693557,0.9953976518243141,1.9848674493918952,0.15000000000000013,,,binary
Tb0.329Mo0.671,Tb,Mo,0.32888871644123896,0.671111283558761,2417.304014007029,4577.023925162093,9852.12555940437,1.8113779605722868,1.5486666149323716,1.06,,,binary
Cr0.366Tb0.634,Cr,Tb,0.3655397491050757,0.6344602508949243,1805.8283631516915,3566.1216280497924,8445.454415178807,1.3047022594988424,1.6220610878132236,0.5599999999999998,,,binary
Ni0.450Os0.550,Ni,Os,0.4495611064999492,0.5504388935000508,2142.57006024185,4907.633758885444,13715.29549276998,2.0696272791150148,1.3224780553249975,0.29000000000000026,,,binary
Pt0.452Lu0.548,Pt,Lu,0.4517893069662898,0.5482106930337102,2181.7834020752225,4301.7031246135075,13295.109300426546,1.7263072000359527,1.5692842772134843,1.0099999999999998,,,binary
Ir0.879W0.121,Ir,W,0.8789788674522473,0.12102113254775271,2737.421203931123,4302.518255484935,21760.57541114157,2.2193633812076405,1.35,0.1599999999999997,,,binary
Ba0.498Er0.502,Ba,Er,0.49801871399490183,0.5019812860050982,1359.3844417795553,2850.117800162678,7124.372555753644,1.0656934501017843,1.9492074855979609,0.35,,,binary
Y0.741Ag0.259,Y,Ag,0.7409184699214191,0.2590815300785809,1883.5468591160247,3119.05084207763,5904.967742227247,1.4039478863557924,1.7481836939842839,0.71,,,binary
Yb0.163Hg0.837,Yb,Hg,0.1631416048443743,0.8368583951556257,311.92013522955915,704.983250531597,1175.257034443713,1.8531725556400631,1.5407854012110933,0.8999999999999999,,,binary
Sm0.536Nb0.464,Sm,Nb,0.5363795178757096,0.4636204821242904,2318.919596054769,3014.9525759707376,7448.158775572455,1.3693568073134448,1.6645518071502838,0.43000000000000016,,,binary
Ta0.164Co0.836,Ta,Co,0.1640551288599962,0.8359448711400038,2012.3640379158014,3716.5080525323906,9347.94491835036,1.8176590510332016,1.3664055128859998,0.3799999999999999,,,binary
Dy0.345Cd0.655,Dy,Cd,0.345196684872602,0.654803315127398,1010.1203445140131,1582.6325417565145,8603.373703760262,1.527757558109877,1.6190393369745204,0.47,,,binary
Sm0.441Tm0.559,Sm,Tm,0.4408928583064363,0.5591071416935637,1697.379815754207,2159.574796874387,8084.431772660574,1.2147285713354852,1.7940892858306436,0.08000000000000007,,,binary
Er0.381Mg0.619,Er,Mg,0.3812375870175937,0.6187624129824063,1244.3177436335573,2022.806959753711,4364.030804849672,1.2833133689087683,1.5953093967543985,0.07000000000000006,,,binary
V0.796Yb0.204,V,Yb,0.7960297400451137,0.20397025995488627,1910.7257528480425,3745.2284044909657,6551.81100300942,1.5218957622239102,1.4315881039819547,0.5299999999999998,,,binary
Re0.899Eu0.101,Re,Eu,0.8985204782184393,0.10147952178156072,3124.378194112424,5836.343712471114,18770.81302553298,1.8289643347529074,1.4007397608907803,0.7,,,binary
Ag0.884Gd0.116,Ag,Gd,0.8840218233554233,0.11597817664457666,1425.1661035409938,2655.856432497405,10080.394486252075,1.845335931049459,1.6231956353289154,0.73,,,binary
Cr0.637Mn0.363,Cr,Mn,0.6369471111149343,0.3630528888850657,2026.8801108422815,2294.8607772415803,6441.7959664357195,1.620064182222643,1.4,0.10999999999999988,,,binary
Pt0.510Os0.490,Pt,Os,0.5104688155716417,0.4895311844283583,2342.822027966301,4745.957640815662,25616.875792445317,2.2408375052457314,1.325523440778582,0.07999999999999963,,,binary
Lu0.228Ho0.772,Lu,Ho,0.22798938127034543,0.7720106187296546,2174.1698305018335,3349.3784300196326,9485.913591938952,1.239119575250814,1.75,0.040000000000000036,,,binary
Ti0.779Zn0.221,Ti,Zn,0.7789354479764277,0.22106455202357234,1365.1572556614642,2869.2263873016714,4688.154853813908,1.5643171007225931,1.3889467723988214,0.10999999999999988,,,binary
Ho0.128Mg0.872,Ho,Mg,0.12783917263883363,0.8721608273611664,962.9365387202728,1544.9561041638813,2515.521526191594,1.2997728661888934,1.5319597931597084,0.08000000000000007,,,binary
Mn0.723Rh0.277,Mn,Rh,0.7228122988054924,0.27718770119450764,1377.9729511367361,2995.3616606481564,7900.974827428939,1.7523470218719905,1.3861406149402746,0.7299999999999998,,,binary
Os0.860Ir0.140,Os,Ir,0.8595736895039358,0.14042631049606424,3303.5683705879865,6282.134388257713,20536.372067698445,2.2,1.3070213155248034,0.0,,,binary
V0.223Sm0.777,V,Sm,0.2227505307141665,0.7772494692858335,1144.1096748685013,2363.6986770126823,7855.173459602983,1.2724652441285165,1.738624734642917,0.45999999999999996,,,binary
Mg0.398Os0.602,Mg,Os,0.397610702776547,0.602389297223453,2820.368707678863,3267.4934141706967,15021.899117692856,1.8461264745288735,1.3795221405553093,0.8900000000000001,,,binary
Mn0.210Pr0.790,Mn,Pr,0.21015608626282145,0.7898439137371785,1214.1078383069416,3269.705224828125,8616.398696446624,1.218265556230385,1.7554297611817304,0.42000000000000015,,,binary
Os0.352Pt0.648,Os,Pt,0.3515083530519053,0.6484916469480947,2112.2914446561076,4629.809972521326,22635.646100486407,2.2518793317558474,1.3324245823474048,0.07999999999999963,,,binary
Ag0.868Rh0.132,Ag,Rh,0.8684160418119944,0.1315839581880056,1515.1901283622954,2662.5536043846514,11078.994337813036,1.976054385365802,1.5671040104529987,0.34999999999999987,,,binary
Ti0.249Lu0.751,Ti,Lu,0.24883843957807994,0.7511615604219201,1853.4331342551461,3744.5175853828573,8221.512301100887,1.3371863786860816,1.662906546147672,0.27,,,binary
Y0.831Ir0.169,Y,Ir,0.8308340046505494,0.16916599534945065,2079.7208083918886,3653.509112001054,7831.700881511375,1.3857826754424616,1.7238753020927473,0.9800000000000002,,,binary
Ni0.720Pd0.280,Ni,Pd,0.7199715868251906,0.2800284131748094,1750.8782433684667,3560.3376608791473,9730.023962624888,1.9912082398206947,1.3640014206587405,0.29000000000000026,,,binary
Tm0.272Mg0.728,Tm,Mg,0.2716563403389758,0.7283436596610242,959.3733594983221,1798.1059252332332,3453.975615512089,1.2937006195796616,1.567914085084744,0.06000000000000005,,,binary
Eu0.655Cd0.345,Eu,Cd,0.655184512832635,0.344815487167365,864.4743106444823,1446.3310830111927,7300.616605705776,1.3689595887120087,1.7465553538497907,0.49,,,binary
Ba0.198Mo0.802,Ba,Mo,0.1981099375231767,0.8018900624768233,1982.1117409430099,5732.569315675901,9882.783331777191,1.9084003793455657,1.5886769562662235,1.27,,,binary
Mn0.238Mg0.762,Mn,Mg,0.23812509118723285,0.7618749088127672,1088.6957698140118,1585.4681551213816,3191.538539549034,1.367150021884936,1.4761874908812769,0.24,,,binary
Tm0.898Mg0.102,Tm,Mg,0.8978099232184334,0.10219007678156655,1816.5137468431649,2272.877580521425,9020.917371963149,1.2561314046068939,1.7244524808046082,0.06000000000000005,,,binary
Ho0.634Ta0.366,Ho,Ta,0.6342718323911744,0.36572816760882565,2323.704113889376,3915.539580191711,11491.292193985208,1.3287466052543828,1.6402815497173522,0.27,,,binary
Tm0.540Mn0.460,Tm,Mn,0.5399977179895125,0.46000228201048754,1647.7057740977214,2531.886404670071,8972.250765442808,1.3880006846031463,1.5889992012963292,0.30000000000000004,,,binary
Cd0.781Hf0.219,Cd,Hf,0.7810896406025007,0.21891035939749925,714.9469253656031,2003.0324403101986,9858.434556218177,1.6046249598349753,1.5500000000000003,0.3899999999999999,,,binary
Tm0.610Er0.390,Tm,Er,0.610160018051213,0.389839981948787,1808.3729778409954,2480.601420852692,10258.201556799095,1.246101600180512,1.75,0.010000000000000009,,,binary
Os0.279Sc0.721,Os,Sc,0.27939329219676523,0.7206067078032348,2442.234186810912,3425.694805615326,8812.789036312735,1.5946903654452829,1.5161820123409706,0.8400000000000001,,,binary
Mo0.289Cu0.711,Mo,Cu,0.2893889474294964,0.7106110525705036,1627.7351393786046,3185.6051075128744,8729.871559007302,1.9752411263316692,1.3789388947429497,0.26000000000000023,,,binary
Ba0.389Ti0.611,Ba,Ti,0.38871721955550576,0.6112827804444942,1711.062790550228,3296.0009161901157,4330.8118506929095,1.2873338072889213,1.6915379146666294,0.65,,,binary
Pr0.474Os0.526,Pr,Os,0.47392467143333983,0.5260753285666602,2479.3268702879855,4699.57671908604,14076.543395342243,1.6929006015663264,1.560658569288337,1.0700000000000003,,,binary
Ce0.590Cu0.410,Ce,Cu,0.5895586900964167,0.4104413099035833,1238.199915523646,3731.842728225036,8178.310079824384,1.440144221724795,1.6447793450482084,0.7799999999999998,,,binary
Fe0.347Mn0.653,Fe,Mn,0.3474325740227697,0.6525674259772303,1813.1078159435397,2796.951203460808,7877.827594976189,1.6472811207263756,1.4,0.28,,,binary
Tm0.483Yb0.517,Tm,Yb,0.4829320879322031,0.5170679120677969,1599.851509538703,1828.269100597572,7201.99340866995,1.1724398131898306,1.75,0.1499999999999999,,,binary
Au0.159Pr0.841,Au,Pr,0.15900057032899123,0.8409994296710088,1208.5297310513445,3233.7252337614686,8068.719022595986,1.3541908041638775,1.7704997148355046,1.4100000000000001,,,binary
Ta0.159Tb0.841,Ta,Tb,0.159332015812245,0.840667984187755,1866.2836932722853,3552.276780941729,9267.84530259524,1.1637328063248982,1.7022003952563265,0.3999999999999999,,,binary
Ca0.514Ho0.486,Ca,Ho,0.5138880094558881,0.4861119905441119,1147.785792366227,2408.125544800521,5072.492774295438,1.1118057578251457,1.7756944004727946,0.22999999999999998,,,binary
Cu0.612Ce0.388,Cu,Ce,0.6118351434933305,0.38816485650666954,1143.540119318141,3590.1142935783014,8809.123588238821,1.5972314119247977,1.544082428253335,0.7799999999999998,,,binary
Nb0.446Cu0.554,Nb,Cu,0.44609462918557996,0.55390537081442,1660.7265400734868,3704.659054554933,8089.800763270952,1.766171611244326,1.3946094629185581,0.2999999999999998,,,binary
Cr0.514Ni0.486,Cr,Ni,0.5144817063392131,0.4855182936607869,1776.2734299971219,3315.438770609937,7843.366515234724,1.7813795734151965,1.3757240853169606,0.25,,,binary
Hf0.230Zr0.770,Hf,Zr,0.22957356764471976,0.7704264323552803,2156.194622061012,3779.4042567657566,8584.771903583085,1.3231127929706585,1.5500000000000003,0.030000000000000027,,,binary
Tm0.377Ru0.623,Tm,Ru,0.37681846587349843,0.6231815341265016,2023.4599296691858,3615.5391586507017,11532.327392451029,1.8420224574201767,1.4695683096430743,0.9500000000000002,,,binary
Y0.777Cd0.223,Y,Cd,0.7767469649246925,0.22325303507530747,1738.2139478316058,2638.175369540057,3772.7799916604868,1.3249289264853945,1.7441867412311731,0.47,,,binary
Pd0.608Mo0.392,Pd,Mo,0.6080456731101967,0.39195432688980325,2287.941953830863,4593.839231843657,12744.766918470514,2.184321826924408,1.41959771634449,0.040000000000000036,,,binary