formula,element_1,element_2,composition_1,composition_2,melting_point,boiling_point,density,electronegativity,atomic_radius,electronegativity_difference,element_3,composition_3,alloy_type
Sc0.269V0.157Mn0.574,Sc,V,0.2688673773058521,0.15698464668379322,1957.0906175131374,2390.7234846951546,6289.010552694526,1.5114739700465916,1.4459242431269808,0.0,Mn,0.5741479760103547,ternary
Ru0.212Ni0.229Ce0.559,Ru,Ni,0.21204781936990205,0.22891107050203838,1421.4379740794311,3511.571154310235,7726.855943678903,1.5298513906161046,1.6189181640955348,0.0,Ce,0.5590411101280596,ternary
W0.485Re0.379V0.136,W,Re,0.48504744648081677,0.3785111750196338,3150.5864742984154,7061.224666518725,19657.88078690218,2.0862826531862972,1.35,0.0,V,0.1364413784995494,ternary
Zn0.402Er0.152Sc0.446,Zn,Er,0.40214474227087904,0.15207101146282595,1511.2154131408472,2450.3571923942727,4684.258690977784,1.4583734538830158,1.5222744661517043,0.0,Sc,0.445784246266295,ternary
Cr0.521Mg0.454Ca0.050,Cr,Mg,0.52138821099211,0.4543195407358409,1675.3691349078058,2482.6110864099956,4198.124260161061,1.510663028610854,1.5014228064927153,0.0,Ca,0.05,ternary
Co0.121Eu0.153Ce0.726,Co,Eu,0.1209847186032896,0.15270554187538585,1269.1523204048863,3533.1849183648073,7983.341821291544,1.2241648294885308,1.7895076406983552,0.0,Ce,0.7263097395213245,ternary
Gd0.555Ni0.179Tc0.266,Gd,Ni,0.5554928852678777,0.17851627367865022,1758.6147856533887,3323.1022177872437,8711.225019115243,1.512940143049272,1.599971798370545,0.0,Tc,0.26599084105347215,ternary
Cd0.481Tm0.349Mg0.170,Cd,Tm,0.4809823449920737,0.34919550021198353,1232.0599533970048,1232.2362156878269,6115.678465754329,1.471821561084269,1.6113479923025995,0.0,Mg,0.16982215479594276,ternary
Co0.282Zn0.510Tb0.209,Co,Zn,0.28186845382529313,0.5095803914136159,1201.696822353511,2134.971304213721,7867.190160550931,1.6001266092612174,1.4334204619044364,0.0,Tb,0.20855115476109098,ternary
Ni0.520Mo0.458Mg0.050,Ni,Mo,0.5195089574935507,0.4584908237380049,2486.3927380719947,3755.743358154158,7662.10690927816,2.0481022880867727,1.4411487870364006,0.0,Mg,0.05,ternary
Al0.271Rh0.353Sr0.377,Al,Rh,0.27066003489031754,0.35251136411451467,1730.660685216751,2501.0593296377797,5463.471748428034,1.5974757372999142,1.5678725871578274,0.0,Sr,0.3768286009951678,ternary
Fe0.458Ag0.308Os0.235,Fe,Ag,0.457599872182478,0.3075043036067613,2204.1164629662294,3292.6542074534555,12062.901755463867,1.9476618853186576,1.438011278300276,0.0,Os,0.23489582421076072,ternary
Gd0.176Dy0.477Rh0.347,Gd,Dy,0.17580560726376718,0.4767535855235542,1946.4685774318673,3715.2042660368124,9464.893424083435,1.5847711435001641,1.619813957478117,0.0,Rh,0.34744080721267867,ternary
Au0.501Ru0.307Cu0.192,Au,Ru,0.5008843393207447,0.30670470937348926,1993.7311924962198,2783.5627972878906,16330.463384802308,2.3125773899773234,1.3346647645313257,0.0,Cu,0.19241095130576602,ternary
Au0.497Ca0.281Y0.222,Au,Ca,0.4973036731861481,0.28088718482755215,1261.6562771908184,3241.2010068791155,11181.874335503708,1.8146456679436538,1.5762133470662334,0.0,Y,0.22180914198629975,ternary
Ti0.485Mg0.459Zn0.056,Ti,Mg,0.48507593054305276,0.45881286787333664,1309.4156782219432,2578.7478407876083,3686.568619809722,1.4406452725633296,1.443075726708153,0.0,Zn,0.056111201583610604,ternary
Y0.269Mn0.301Fe0.430,Y,Mn,0.2691518139645628,0.3008254341108535,1830.3303928783716,2710.0962992970162,6505.898643023215,1.5815862719305778,1.5076607255858252,0.0,Fe,0.4300227519245837,ternary
Zr0.297Hg0.119Cr0.585,Zr,Hg,0.2966331331401779,0.11854686684972107,1933.133154738389,3172.0746163768567,6564.862176718965,1.6024170007926464,1.4563496566559988,0.0,Cr,0.584820000010101,ternary
Tb0.129Zn0.416Pr0.455,Tb,Zn,0.1289049147730059,0.4158037810774411,836.835927080033,2650.140301695469,6846.964058999562,1.3423508187170792,1.6292076179839787,0.0,Pr,0.455291304149553,ternary
Tm0.586Dy0.310Y0.104,Tm,Dy,0.5863305736173854,0.30965264887363764,1624.601004404918,2368.2782673785873,8394.15561910818,1.2375899172085214,1.7552008388754488,0.0,Y,0.10401677750897698,ternary
Ho0.511Er0.450Ce0.050,Ho,Er,0.5111875950851029,0.4503635355808348,1120.6767635914077,2906.9873447174355,8132.697119049439,1.2432115260749117,1.7752144786653912,0.0,Ce,0.05,ternary
Ta0.459Re0.518Al0.050,Ta,Re,0.4586535532417055,0.518061957526041,3525.975574033527,5340.746954998189,18259.81489721036,1.752798049162036,1.4269312948606283,0.0,Al,0.05,ternary
Eu0.302Zn0.422Er0.276,Eu,Zn,0.3019690366319904,0.4219396740389375,1294.6390517029356,2098.4213140332613,7739.7607139316715,1.4009165048906846,1.6114210340476243,0.0,Er,0.2760912893290721,ternary
La0.321Eu0.273Tb0.406,La,Eu,0.32107190898608773,0.2726253065752793,1277.3123254394668,3284.973074969227,6584.655383292409,1.1272625306575281,1.8414769124547457,0.0,Tb,0.406302784438633,ternary
Tb0.540Pt0.142Mo0.317,Tb,Pt,0.540487341215951,0.142140461642184,2048.7511273685755,4200.048835505097,10063.655981546362,1.604140273708154,1.5979321562005668,0.0,Mo,0.31737219714186504,ternary
La0.463W0.470Ir0.067,La,W,0.46254934116780955,0.47002611115528503,2842.4997301697517,4710.933298301385,14247.712911271883,1.766399902500255,1.6275296047006858,0.0,Ir,0.06742454767690542,ternary
Cu0.242Y0.146La0.612,Cu,Y,0.24196392973413508,0.14640978392836304,1513.9638262632225,3962.56416159087,5646.15970849588,1.3111403178587118,1.7828601745702646,0.0,La,0.6116262863375019,ternary
Ce0.270Hf0.418Y0.312,Ce,Hf,0.27035443990322316,0.41784275233755763,1981.1729488472627,4497.50955350975,9545.922874775022,1.2263919761966824,1.709057033910772,0.0,Y,0.3118028077592192,ternary
Ti0.229La0.516Nd0.255,Ti,La,0.22934509009621953,0.5161144933631934,1236.1605332201957,3369.8671468675743,6526.999569740605,1.21109345630396,1.7984061587930205,0.0,Nd,0.2545404165405871,ternary
Hf0.593Yb0.155Hg0.251,Hf,Yb,0.5934773501205243,0.15522095312172982,1585.6668210772493,3181.8015971220407,10324.506493069808,1.4448669971060764,1.5684791057864587,0.0,Hg,0.25130169675774594,ternary
Cr0.413Os0.277Pd0.309,Cr,Os,0.41349476615898073,0.27723667295207466,2371.929325991098,3415.6234832132873,11803.459762880491,1.9767128262741505,1.3722763327047924,0.0,Pd,0.3092685608889446,ternary
Cr0.324Tb0.386Ni0.289,Cr,Tb,0.3243684429599386,0.3862176401051085,1897.4788684841242,2799.3358435902887,7868.851777100888,1.5160716007748776,1.5207054781900402,0.0,Ni,0.2894139169349529,ternary
Al0.514Ca0.470W0.050,Al,Ca,0.5135417702321561,0.4699295270640646,1227.6882874565529,2882.2716556057335,3282.8883673205937,1.414731777137836,1.5553003615055112,0.0,W,0.05,ternary
Nd0.541Pr0.412Tm0.050,Nd,Pr,0.5408828952424082,0.4118109230242032,1197.785971117405,3803.8264232529077,6672.457450399763,1.1444528435936947,1.8499835637932311,0.0,Tm,0.05,ternary
La0.275Sm0.242Ru0.483,La,Sm,0.275168567520386,0.24226774747268245,1675.8823545614957,3604.1905360575515,10799.797596616208,1.6477787958307126,1.6121068299982264,0.0,Ru,0.4825636850069316,ternary
Tm0.170Pr0.289Ho0.541,Tm,Pr,0.16998574627321575,0.28883286237592487,1622.7308573663254,3030.535756834188,9614.638291391164,1.2045164286878718,1.7788832862375927,0.0,Ho,0.5411813913508594,ternary
Lu0.264Rh0.391Co0.345,Lu,Rh,0.263923481540575,0.39118452292887584,1707.6466016956967,3159.66169326193,8834.430407256968,1.8754804854317995,1.45556939261623,0.0,Co,0.34489199553054917,ternary
Os0.173Ca0.313Co0.514,Os,Ca,0.17327662673458613,0.31284606616362043,1898.4134506241576,3161.6216733798187,10360.99559611074,1.6601439823310815,1.4821168984369,0.0,Co,0.5138773071017935,ternary
Au0.312Fe0.165Cr0.523,Au,Fe,0.31244336623143143,0.16503166063224176,1901.001176390307,2910.5707845729203,11062.42978147653,1.9630055445911407,1.3843778316884285,0.0,Cr,0.5225249731363268,ternary
Tc0.285Mg0.363Mn0.352,Tc,Mg,0.2846471081555726,0.3631278015775744,1580.273942070948,2172.6418793143907,8307.065126163116,1.5624758154758327,1.4220804247499788,0.0,Mn,0.352225090266853,ternary
Nd0.453Ce0.515Y0.050,Nd,Ce,0.45341601724518427,0.5146502695853162,1291.5004347111228,3654.7201092339083,7164.518709922685,1.1543025615950642,1.880922630636426,0.0,Y,0.05,ternary
Nd0.312Ba0.320Gd0.368,Nd,Ba,0.31171109749567427,0.32003997746489143,1400.7950441545815,2991.9359720878624,5764.138766170237,1.082084941136143,1.9275995469874956,0.0,Gd,0.3682489250394343,ternary
Ba0.512Yb0.172Au0.316,Ba,Yb,0.5119059151516958,0.17217309067318545,1190.60494110547,2428.650121221347,8294.296729123904,1.447425989430315,1.8283939683906307,0.0,Au,0.31592099417511876,ternary
Cu0.329Ba0.584Tm0.087,Cu,Ba,0.3288564001373394,0.5840159032662388,1357.6381597111495,2570.838197177881,6218.372571039098,1.2535109349134246,1.8520638012515596,0.0,Tm,0.08712769659642183,ternary
Sc0.447Y0.328Ni0.225,Sc,Y,0.4472353525930738,0.32771618691591753,2038.8463590955535,3294.699370228365,4957.580188708868,1.4378963871018264,1.6092811222604313,0.0,Ni,0.22504846049100868,ternary
V0.572Lu0.285Zr0.143,V,Lu,0.5720347805284958,0.28466602981722855,2271.916084943081,3545.1087757162945,7268.628862656677,1.484530472369515,1.4925262498577467,0.0,Zr,0.14329918965427568,ternary
Ni0.155Sm0.285Au0.560,Ni,Sm,0.15516808152521558,0.2847929826817094,1417.7123595194091,2566.6322094829616,17595.83226399197,2.0520777223651727,1.492396491340855,0.0,Au,0.5600389357930751,ternary
Cd0.177V0.286Y0.538,Cd,V,0.17665225534790088,0.2857336770926586,1457.232488749065,2763.2587781755915,6424.3138915391655,1.4201773676215033,1.6272567814713286,0.0,Y,0.5376140675594405,ternary
Os0.343Hf0.496Cd0.161,Os,Hf,0.3429627702682383,0.495601850535234,2648.0422510441676,3945.888347659307,16703.578995389173,1.6716262911280604,1.4642593074329406,0.0,Cd,0.16143537919652773,ternary
Zn0.124Nd0.547Au0.329,Zn,Nd,0.12432552329011501,0.5471264641924349,1416.4147830584152,3011.0483987827884,13794.603430395568,1.6633732344023886,1.6235632320962174,0.0,Au,0.32854801251745,ternary
Cd0.510Tc0.344Nb0.146,Cd,Tc,0.509562534614132,0.3443968281227564,1275.5606653854716,3021.5437941013397,10742.030203456421,1.7491796765520986,1.4665165706491377,0.0,Nb,0.14604063726311156,ternary
Ni0.134Ce0.122Re0.744,Ni,Ce,0.13378226932297102,0.12234123802771849,3196.5059582899307,5129.496140534883,17133.833467591056,1.8059116570316094,1.4111706190138595,0.0,Re,0.7438764926493106,ternary
Sr0.383Pr0.550Hf0.067,Sr,Pr,0.38288198803504714,0.55014364398205,1289.264315467499,3158.631330887524,5885.8170922545905,1.072466884710785,1.8873399878103863,0.0,Hf,0.0669743679829029,ternary
Ir0.517Sr0.166Yb0.317,Ir,Sr,0.5168417327318702,0.1664048037005634,2139.3789599760294,2847.3628957405012,13901.171814975307,1.6435651854499729,1.5848645078323926,0.0,Yb,0.3167534635675664,ternary
Cu0.330Sc0.325Gd0.345,Cu,Sc,0.33046808228522084,0.32496469567425823,1435.3956114267476,3153.137386837848,7314.349592939325,1.4833220089075358,1.586296423836799,0.0,Gd,0.3445672220405209,ternary
Mg0.263Zn0.500Yb0.237,Mg,Zn,0.26260814327491433,0.4999058105974288,858.3540903725761,1634.7197758593384,5694.061020054111,1.4300959059163179,1.4843856399423,0.0,Yb,0.2374860461276569,ternary
Dy0.294Eu0.550Au0.156,Dy,Eu,0.2936175608367557,0.550122208876152,1314.634037279674,2337.5925595344465,7874.901491338524,1.4152610598014386,1.7425081287727782,0.0,Au,0.15626023028709224,ternary
W0.489La0.501V0.050,W,La,0.4893752188997625,0.5005530785664039,2500.0079439313918,5463.353279002123,12948.281675840493,1.7870339030264837,1.704235048719167,0.0,V,0.05,ternary
Lu0.144Ag0.183Tb0.673,Lu,Ag,0.14426494563353645,0.18280739079120986,1472.7366573335992,3024.283863723685,8468.907385995934,1.2762551751144056,1.7225788913813185,0.0,Tb,0.6729276635752537,ternary
Ti0.497Pr0.453Gd0.050,Ti,Pr,0.49714851140299027,0.4532948298165569,1603.5529626751254,3986.134869468423,4888.792959220309,1.3378318652533143,1.6246033511248166,0.0,Gd,0.05,ternary
Ce0.422Tb0.143Ni0.435,Ce,Tb,0.4219570948159427,0.14257601571242037,1389.4856424815507,3469.1627235883984,6429.684670289739,1.4611673223683448,1.6180089536929394,0.0,Ni,0.4354668894716369,ternary
Eu0.430La0.545Pr0.050,Eu,La,0.4301531879827618,0.5449190185464019,1084.5931646098709,2788.63105585578,5464.244263988091,1.1720947459803563,1.950875483933593,0.0,Pr,0.05,ternary
Y0.351Mo0.109Sr0.539,Y,Mo,0.351319400581957,0.10933203518496146,1544.0357656681979,2654.2604278542826,3885.1023336686417,1.1771480007309316,1.8696035005318796,0.0,Sr,0.5393485642330815,ternary
Dy0.581La0.237Nb0.181,Dy,La,0.5811883830240875,0.23748126397563904,1833.621770891108,4043.5249946977215,9291.970956887797,1.260407782463027,1.7430971468950456,0.0,Nb,0.18133035300027348,ternary
Tc0.519Rh0.390Tm0.091,Tc,Rh,0.5194587204145484,0.3897763753094877,1857.136538051314,4342.635626561715,11464.712951998197,1.9891178348382288,1.3863059617103857,0.0,Tm,0.09076490427596384,ternary
Fe0.260La0.394Sm0.345,Fe,La,0.26021558047010696,0.3944465132243322,1428.1241575800154,2889.013014339994,7094.93411312088,1.3141310271845674,1.772347640110885,0.0,Sm,0.3453379063055608,ternary
Ba0.319Ti0.307W0.374,Ba,Ti,0.31850870989452307,0.30746821174046746,2332.1029040770413,3727.8687499842267,8833.86365649743,1.6396682628278678,1.6201803785026416,0.0,W,0.3740230783650095,ternary
Y0.229Ta0.157Ir0.614,Y,Ta,0.2285888965838592,0.15732231207112266,2493.6650673805734,4721.496612030957,18602.062297055207,1.8658572628980323,1.4685972346698488,0.0,Ir,0.6140887913450181,ternary
Co0.243La0.191Zr0.566,Co,La,0.24267586225283985,0.19133446311784727,2020.610270893795,3937.9636398058915,7220.200429686914,1.419464797721957,1.5779986127965708,0.0,Zr,0.5659896746293128,ternary
Fe0.539Zn0.427Hf0.050,Fe,Zn,0.5389850721736362,0.4266008488281889,1531.3518135036838,2720.3500535464473,7908.594638866255,1.7552340826442658,1.4079902469611456,0.0,Hf,0.05,ternary
Cr0.191Eu0.457Ta0.353,Cr,Eu,0.19072892005432837,0.45665031171777015,2031.8655333003019,3469.4114289208965,8520.72047944284,1.3935215336933613,1.6231236786843914,0.0,Ta,0.35262076822790145,ternary
Hf0.260Ir0.306Co0.434,Hf,Ir,0.26002073192022945,0.30641140599925454,2213.7149621300873,4400.679878469483,15175.255125955495,1.8272396254060284,1.402004146384046,0.0,Co,0.433567862080516,ternary
Ta0.484Pd0.505Ir0.050,Ta,Pd,0.4839180726952218,0.5052519741261765,2580.9733530373856,4744.474693959872,14005.602746563854,1.9474314521204212,1.4765339691847186,0.0,Ir,0.05,ternary
Cr0.476Mo0.393Rh0.131,Cr,Mo,0.4760668694861405,0.3930145384240564,2642.5431858843162,3821.5402206777703,8818.97628714641,1.9376767963077062,1.4131047973167123,0.0,Rh,0.13091859208980305,ternary
Ba0.575Sc0.235Ir0.191,Ba,Sc,0.5746785279925218,0.23464376352962843,1467.5129011368172,2838.049029986174,6721.239483403819,1.2500703669649085,1.8684037632764248,0.0,Ir,0.19067770847784973,ternary
Ta0.304Ca0.342Ce0.354,Ta,Ca,0.303538231795498,0.34208575497905325,1874.2770657714543,3484.6586825600075,9221.699377216899,1.194294237484803,1.7114804195328481,0.0,Ce,0.35437601322544876,ternary
Au0.557Gd0.109Ru0.334,Au,Gd,0.5568675491443124,0.10931141625776788,2050.2613513865413,3282.7178905271658,15850.297955035485,2.2800235504512987,1.3824990855860997,0.0,Ru,0.3338210345979198,ternary
Ce0.151Nd0.481Ho0.368,Ce,Nd,0.1507547082242224,0.4814891485672721,1330.586027513735,3165.555144170465,9022.152392504691,1.170082958724281,1.8132243856791495,0.0,Ho,0.36775614320850547,ternary
Tb0.384Cu0.323Hf0.293,Tb,Cu,0.38412281873355025,0.3229911278333826,1742.946964934829,3944.4138825901496,10474.383565034314,1.4169701129533196,1.5622263381800336,0.0,Hf,0.2928860534330672,ternary
Gd0.491Sc0.171Tc0.337,Gd,Sc,0.4914407937523406,0.17118351524064399,1718.234970453185,3469.155425506657,7275.853001338915,1.463552346143414,1.6139442359987144,0.0,Tc,0.33737569100701537,ternary
La0.369Zr0.312Rh0.319,La,Zr,0.3687678149067336,0.3118762283077542,1656.9413593016416,2936.9980430653704,8723.59077802987,1.5485715615176878,1.633635934605591,0.0,Rh,0.3193559567855122,ternary
Ce0.101Mg0.332V0.567,Ce,Mg,0.10050052930654477,0.33232602686105084,1991.607305868018,2948.2230912579553,4047.452767799596,1.4724004014581258,1.45009916868243,0.0,V,0.5671734438324044,ternary
Eu0.586Cd0.100Tb0.314,Eu,Cd,0.5860409020162436,0.10027146585350863,1136.5652615577847,2154.3891610011237,5855.407718042806,1.2177642550551944,1.7885497970309228,0.0,Tb,0.31368763213024775,ternary
Sr0.225Ag0.440Sm0.335,Sr,Ag,0.22544447868871584,0.4399988985812422,1335.8711008985902,2312.3659495933466,6782.443801394536,1.4548013776102264,1.773816947157997,0.0,Sm,0.33455662273004194,ternary
Re0.393Gd0.355Tc0.252,Re,Gd,0.39257958323018327,0.35516421080124116,2717.5753393629907,5417.638551028583,16614.92577863379,1.6513850524391311,1.5098238948605585,0.0,Tc,0.25225620596857556,ternary
V0.367Zr0.135Lu0.498,V,Zr,0.36704464317516083,0.1349676098698316,2633.6323334984745,3468.8405748433793,10287.736201054757,1.4102341281352477,1.5761886207559694,0.0,Lu,0.4979877469550076,ternary
Fe0.161Pt0.170Er0.669,Fe,Pt,0.16148848246968575,0.1698251341472334,1778.789995671029,3106.7369021253307,11272.498441297928,1.5118963441702373,1.6255489774767167,0.0,Er,0.6686863833830808,ternary
Ce0.205Ag0.352Hg0.442,Ce,Ag,0.2054250881464977,0.35241012482873035,714.0717661551356,1958.0763229930399,4401.4765607857225,1.7945572136930708,1.6071397933341471,0.0,Hg,0.4421647870247719,ternary
Ta0.394Ho0.570W0.050,Ta,Ho,0.3937896360250474,0.5696661008975895,2409.1919400083198,4800.005328233467,12457.816931728219,1.409373758141606,1.6354106488071003,0.0,W,0.05,ternary
Tm0.223Mg0.592Ag0.186,Tm,Mg,0.2229641424949356,0.591510973578834,1197.1379866064706,1836.974700171582,5643.92191419346,1.4116475794845669,1.5742935240163571,0.0,Ag,0.18552488392623045,ternary
W0.579Tc0.264Ca0.156,W,Tc,0.579496339706755,0.2642286219294169,2468.018356622035,5134.499056183827,14049.070049344615,2.025920781737662,1.4203237672637228,0.0,Ca,0.15627503836382817,ternary
Er0.552Cu0.402Tb0.050,Er,Cu,0.5521078745859134,0.401644751147706,1648.7130776784873,3533.1940270600253,7924.378881200824,1.5027387916671737,1.5959091945747514,0.0,Tb,0.05,ternary
Al0.307Ho0.548Nb0.146,Al,Ho,0.3065815163991997,0.5476340886074674,1470.9508174605407,2601.9889511602687,6515.016829970559,1.400441202379229,1.5529739233024002,0.0,Nb,0.14578439499333284,ternary
Tm0.369Ba0.494Pt0.137,Tm,Ba,0.369065726850736,0.4936526174721132,1637.0898456786342,2411.476636782695,6986.832651363087,1.2136851630575045,1.892548384717985,0.0,Pt,0.13728165567715078,ternary
Tb0.115Mn0.516La0.368,Tb,Mn,0.11547376026426323,0.5160419323148452,1343.0189723126825,2543.582878057902,6273.265705099693,1.3322188695416803,1.6430821851739825,0.0,La,0.36848430742089155,ternary
Dy0.162Mg0.586Ho0.252,Dy,Mg,0.1617077959812981,0.5860195138036506,1298.6085485816402,1776.7406936970729,5134.041037181914,1.275264483144479,1.6034951215490874,0.0,Ho,0.2522726902150513,ternary
Ir0.293Sm0.520Re0.187,Ir,Sm,0.2933755173429349,0.5195728963910261,2134.105982397057,3586.0314304098906,13996.420208345276,1.6087244408374315,1.609786448195513,0.0,Re,0.18705158626603902,ternary
Er0.331Al0.568Ni0.101,Er,Al,0.33134626586169236,0.5681239247060972,1401.685527435413,3178.0652793348518,5615.489136624651,1.517560824460837,1.4257261138740671,0.0,Ni,0.10052980943221046,ternary
Mg0.471Al0.479Ru0.050,Mg,Al,0.47118400576692665,0.47901158084933565,1069.574788309393,2154.0979876353795,2878.8111060200736,1.4984596927221046,1.3705404847120595,0.0,Ru,0.05,ternary
Ho0.196Tm0.508Re0.296,Ho,Tm,0.1957558381928746,0.5081404120230776,2210.1744800036854,3454.096919064324,12333.842869798154,1.4385523205957735,1.6315585000863808,0.0,Re,0.29610374978404785,ternary
Gd0.211Hf0.590Tm0.199,Gd,Hf,0.21057384026891715,0.5900595601417447,2075.4569371803495,3782.2448022532603,11907.764494524015,1.2689742859936415,1.642516779985097,0.0,Tm,0.19936659958933822,ternary
Os0.346V0.452Ag0.202,Os,V,0.3464189376849963,0.45202385003480317,2692.9852786866677,4451.75525730805,11111.797718691983,1.8879259581645083,1.3830683561858004,0.0,Ag,0.20155721228020052,ternary
Sm0.198Tc0.511Al0.291,Sm,Tc,0.19804339701035442,0.5105617353261862,2008.396358586335,3428.961375405551,8601.900349672145,1.670923808560038,1.4198822117388312,0.0,Al,0.29139486766345934,ternary