formula,element_1,element_2,composition_1,composition_2,melting_point,boiling_point,density,electronegativity,atomic_radius,electronegativity_difference,element_3,composition_3,alloy_type
La0.185Rh0.572Tc0.243,La,Rh,0.18521650639642964,0.572104939295892,2103.1779337115167,4847.621431841823,11141.676827751467,1.969226671815295,1.461129903837858,0.0,Tc,0.24267855430767837,ternary
Er0.317Fe0.458Co0.225,Er,Fe,0.31744670343906234,0.45788257803478005,2010.4950266213325,3013.955362982763,8218.51682166658,1.653939980897261,1.499872810277364,0.0,Co,0.2246707185261576,ternary
Zr0.483Ta0.210Ir0.307,Zr,Ta,0.48315441191329744,0.2101880174844525,2219.4326262416125,4543.955846837904,14307.476047507696,1.6325240493963147,1.4676496841311046,0.0,Ir,0.3066575706022501,ternary
Pd0.541Dy0.424Sr0.050,Pd,Dy,0.5409850643681737,0.4235805195617353,1754.3883670491387,3322.655166950801,10443.727134991052,1.7544353754752995,1.5986449993484801,0.0,Sr,0.05,ternary
Dy0.417Cu0.346La0.237,Dy,Cu,0.4167740953170299,0.3459793913753396,1401.765327110386,3861.683821044396,8031.950686063246,1.4267964045383152,1.6590575461113901,0.0,La,0.23724651330763047,ternary
Er0.512W0.461Ru0.050,Er,W,0.5124551119937097,0.461027806103088,3077.9651655184125,4336.3896221372215,15142.520443786925,1.833469961275488,1.584183984228161,0.0,Ru,0.05,ternary
Sm0.272Mn0.555Tb0.173,Sm,Mn,0.27161288997907307,0.5550835628712278,1629.1515767529777,2517.9405933161624,5786.146933851096,1.3688005055905876,1.5828820419929777,0.0,Tb,0.1733035471496991,ternary
Lu0.427Yb0.493Ir0.080,Lu,Yb,0.4269598247189157,0.4925409412454811,1585.5912986548349,2999.708547068366,9749.51396937938,1.2611323276413795,1.7178003063857588,0.0,Ir,0.08049923403560322,ternary
Hg0.158Ru0.144Pd0.698,Hg,Ru,0.15784498263514227,0.14384017032154842,1763.8133379992182,2479.4947252433835,9442.069025463841,2.1684310034729717,1.4014004812313594,0.0,Pd,0.6983148470433094,ternary
Fe0.396W0.194Lu0.410,Fe,W,0.3961002436921397,0.19407818594805057,2314.822693444107,4037.729722916948,12210.475889412688,1.7033613591509733,1.5337336403285309,0.0,Lu,0.4098215703598097,ternary
Ni0.164Pr0.257Os0.580,Ni,Pr,0.16370873322088383,0.2566861456411653,2472.790987184068,4681.956766547539,16294.222129074424,1.8778702915298968,1.4493628167636852,0.0,Os,0.5796051211379508,ternary
Ir0.101Pr0.131Lu0.768,Ir,Pr,0.10083924573212458,0.13094246830813502,1724.3757688768508,2914.76178139781,11175.265422974442,1.3454485529677371,1.7227585485379637,0.0,Lu,0.7682182859597404,ternary
La0.590Mo0.260Ir0.150,La,Mo,0.5899247490752432,0.2598214945617352,1900.2576209693148,3931.617391782547,8129.309990948751,1.5406899162347631,1.7299369989013194,0.0,Ir,0.15025375636302163,ternary
Os0.360Ho0.401Cu0.239,Os,Ho,0.3598756911745026,0.4008088193490207,2348.839636715196,3764.532168599394,14564.894728272608,1.7394207983885068,1.4923297431808833,0.0,Cu,0.23931548947647674,ternary
Ru0.105Co0.526Pt0.369,Ru,Co,0.10459426096935917,0.5261810126178069,2321.439117632074,2875.8296840294342,12800.87553407754,2.0611600540753283,1.3447702869515321,0.0,Pt,0.3692247264128339,ternary
Ta0.519Zn0.350Cd0.131,Ta,Zn,0.5186083272803732,0.3499163325130229,1984.2920036425485,4034.137714882945,10262.54578408902,1.577467764516208,1.428155900769358,0.0,Cd,0.1314753402066039,ternary
Ca0.242Zn0.474Sm0.285,Ca,Zn,0.2416964126596998,0.47352996567394845,1170.3311755404675,1596.0080826814396,5793.417538748492,1.3562059933713462,1.601150196530041,0.0,Sm,0.2847736216663518,ternary
Er0.260V0.351Sm0.389,Er,V,0.2600696791294642,0.35118899714326524,1723.3263808937388,2789.054784823802,8133.592001327233,1.3497518162249644,1.648398533515421,0.0,Sm,0.38874132372727055,ternary
Er0.541Ni0.433Ag0.050,Er,Ni,0.5405638107807322,0.433273565456332,1593.8574900987674,3310.6054828201604,8928.145422397518,1.594351635389702,1.6109059822323297,0.0,Ag,0.05,ternary
Sr0.348Gd0.452Tc0.200,Sr,Gd,0.3475127625893619,0.4520702383164156,1448.897508381297,3873.0436448004166,7075.119966116155,1.253413708718615,1.7793149029254722,0.0,Tc,0.2004169990942225,ternary
Ir0.176Cr0.458W0.365,Ir,Cr,0.176351116701531,0.4583831534185002,3005.6320726449703,4797.347056832394,12266.246098747668,2.010915613934805,1.372919157670925,0.0,W,0.36526572987996875,ternary
Yb0.432Ru0.537Er0.050,Yb,Ru,0.4317579534330199,0.537078599755778,2308.035410342197,2372.264249981208,9169.949306898821,1.7185066682390335,1.5412785981902961,0.0,Er,0.05,ternary
Nb0.296Ba0.592Yb0.112,Nb,Ba,0.295903931927315,0.5921947710775292,1458.5147633691709,3087.753677908921,5466.6993972537375,1.1235910640373763,1.898106728852817,0.0,Yb,0.11190129699515583,ternary
Dy0.374Zr0.269Ti0.357,Dy,Zr,0.3739714547704368,0.26870507382764464,1862.0525708819937,3587.917926095593,5916.455095681903,1.363901068969655,1.5711957702437997,0.0,Ti,0.35732347140191856,ternary
Ho0.479Sr0.296Re0.226,Ho,Sr,0.47885709252716124,0.29553154733711184,1633.4122821651245,3482.294487043224,10406.202496167885,1.2984107780365457,1.733638342779987,0.0,Re,0.2256113601357269,ternary
Y0.241Yb0.562Cd0.197,Y,Yb,0.24118204152724262,0.5615318931456363,1352.0475442044492,1750.3515837031598,6922.908261271335,1.2453406235262705,1.722601889010938,0.0,Cd,0.197286065327121,ternary
Er0.149Ce0.262Pt0.590,Er,Ce,0.14865978334434585,0.26170929280022703,1701.3841861351623,4290.470371480669,17121.11934835816,1.821811045673617,1.5403185597378521,0.0,Pt,0.5896309238554271,ternary
Nd0.252Cr0.427Tm0.321,Nd,Cr,0.2520370038506854,0.4273169925946536,1880.2690952803266,2725.1587503784876,8498.708219672455,1.3974758965402325,1.62564275297694,0.0,Tm,0.320646003554661,ternary
Pr0.448Cu0.246Mg0.306,Pr,Cu,0.4479777629764442,0.2455407846615392,1232.3019333373065,2607.992914786951,4940.952805759603,1.3742330656145483,1.6199610993425249,0.0,Mg,0.3064814523620166,ternary
Zn0.198Tc0.426Lu0.377,Zn,Tc,0.197827534136619,0.4256189972502459,1841.4405786582658,4086.508867618195,11160.7209405334,1.6133144312395702,1.5006213874452539,0.0,Lu,0.3765534686131351,ternary
Os0.151Yb0.493Pr0.356,Os,Yb,0.15097392081587688,0.4927496261465705,1306.530591549995,2465.2196686416232,10165.887515536879,1.276759606488591,1.7176893809366107,0.0,Pr,0.3562764530375526,ternary
Zn0.440Ir0.184Hg0.376,Zn,Ir,0.4397226327719542,0.18411145927751563,795.1437028078523,1703.8931312435209,6859.411854360017,1.882919370385319,1.4064248861925797,0.0,Hg,0.3761659079505302,ternary
Cr0.587Co0.190Re0.223,Cr,Co,0.5870793799827835,0.1898164396921664,2773.1580853633527,3364.3395887154766,11779.38332773946,1.7553046200102886,1.3793539689991392,0.0,Re,0.2231041803250501,ternary
Cr0.425Ni0.397Sc0.178,Cr,Ni,0.4250489024016477,0.3966961951323652,1971.2305311408095,3145.7250404964693,5701.650817196863,1.7056975780432952,1.4158161707365793,0.0,Sc,0.17825490246598708,ternary
Zn0.302Gd0.117Yb0.581,Zn,Gd,0.3019969979114868,0.1169964139118885,804.6521871813976,1586.2569673321111,7068.172874319756,1.2777979902425065,1.635051021531,0.0,Yb,0.5810065881766246,ternary
Rh0.251Pt0.398Ba0.351,Rh,Pt,0.25134480479353705,0.3980777396058863,1531.3219827642915,3011.973728698878,13471.400426383172,1.7926973367151984,1.6304619644804614,0.0,Ba,0.3505774556005766,ternary
Nb0.288Tb0.446Lu0.266,Nb,Tb,0.28768582037035306,0.4458974249331801,2144.6346141244126,3929.4987410389112,9434.946492109168,1.289133758483576,1.6636942538888941,0.0,Lu,0.26641675469646686,ternary
Dy0.528Fe0.424Ca0.050,Dy,Fe,0.5282202627570793,0.42365006962598095,1509.5558937830617,2811.9343915856334,9236.920827403863,1.469708347979182,1.6074955573012624,0.0,Ca,0.05,ternary
Ag0.323Gd0.106Tb0.572,Ag,Gd,0.32255914050088474,0.10580120876431606,1507.4632869936681,3200.5454842578997,10974.304137322959,1.378304207492166,1.7069061893630832,0.0,Tb,0.5716396507347992,ternary
Ni0.410Fe0.546Ba0.050,Ni,Fe,0.40994095678829606,0.5460880380202151,1502.8302789758295,3373.519353742339,9479.49807257287,1.8268283370426392,1.4254435448925007,0.0,Ba,0.05,ternary
Ru0.386Ti0.386Nd0.227,Ru,Ti,0.3864909544115861,0.3863152827303795,1985.4264158698147,4182.105129496205,7274.74505783487,1.704206524768433,1.4635880978449571,0.0,Nd,0.2271937628580344,ternary
Ag0.147Er0.396Lu0.456,Ag,Er,0.1472766190556575,0.39643950306287623,1652.7387691463587,3406.973394383854,10398.309064296043,1.3553093834848475,1.7279085071416516,0.0,Lu,0.4562838778814663,ternary
Ir0.451Sr0.249Tb0.299,Ir,Sr,0.45136849222204267,0.24918167356931828,2208.3320024355344,4145.6891544624505,13250.04847790482,1.5591280904088491,1.6317480215035125,0.0,Tb,0.299449834208639,ternary
Cu0.132Co0.554Ta0.314,Cu,Co,0.13174915058079414,0.5544402616553399,2453.1609017821806,3857.5293281565546,12357.15750367053,1.7633869596613465,1.3813810587763866,0.0,Ta,0.31381058776386594,ternary
La0.506Nb0.110Pt0.384,La,Nb,0.506433968621276,0.1098731942243745,1724.654823240751,4198.315798922991,12660.641140654632,1.6076941449543196,1.6648477005952032,0.0,Pt,0.38369283715434954,ternary
Ce0.344La0.359Y0.296,Ce,La,0.3442816312012511,0.3594505579663214,1116.1570626437924,3253.3902327622727,5896.845973056352,1.1424377699239163,1.8711316652550107,0.0,Y,0.2962678108324275,ternary
Nd0.509La0.426Tm0.065,Nd,La,0.5094138025867481,0.4258503307554473,1069.3807990136788,3743.39477251041,7267.301410533403,1.1300869321021407,1.8861114464097641,0.0,Tm,0.06473586665780462,ternary
Tc0.190Dy0.400Ni0.410,Tc,Dy,0.1903320866152772,0.39955130329436017,1902.7136989546116,2934.5399956173355,10536.530324119985,1.6324062798607386,1.509820521317744,0.0,Ni,0.4101166100903626,ternary
Nb0.324Al0.257Ce0.419,Nb,Al,0.32361643910599114,0.25714804128946844,1899.145299012297,3921.4633075549827,6592.1646806714425,1.4013384310027153,1.5662645995839224,0.0,Ce,0.4192355196045404,ternary
V0.203Cu0.181Pr0.616,V,Cu,0.20311495010793393,0.18060513096981093,1461.9971971950458,3707.9586393184513,6861.105634834063,1.3706234259007213,1.6581399594611277,0.0,Pr,0.6162799189222552,ternary
Ce0.142Pd0.162V0.695,Ce,Pd,0.14230516396436257,0.1623585600634974,1959.9028202605127,3927.393693996209,8830.109973083412,1.6499687456143688,1.4292705099853564,0.0,V,0.6953362759721401,ternary
Hf0.186Os0.589La0.226,Hf,Os,0.18580159926061077,0.588551549409436,2305.268459550822,4810.595832710853,15140.49939853898,1.7845670242025018,1.4931208531796223,0.0,La,0.2256468513299532,ternary
Dy0.250Al0.573Rh0.177,Dy,Al,0.25029998885902116,0.5731073079474068,1565.5265373428117,2834.6791136679767,5036.775103700476,1.630700115484675,1.3928092647488677,0.0,Rh,0.176592703193572,ternary
Y0.367Cd0.170Dy0.463,Y,Cd,0.367051199245901,0.16992752319973506,1637.4033458724132,3307.6593622260943,7539.825884449552,1.2998659359038753,1.7343670553223483,0.0,Dy,0.46302127755436395,ternary
Ba0.360Er0.591Ta0.050,Ba,Er,0.35968882540133823,0.591330018726123,1622.3235795155167,3033.984304182201,8510.911735401767,1.1283722778275835,1.8806585073835924,0.0,Ta,0.05,ternary
Re0.355Sm0.444La0.201,Re,Sm,0.35529517311543035,0.4439651545100254,1885.0085760704367,3716.2324904461184,11424.81348752244,1.415313699308046,1.6924263806797393,0.0,La,0.20073967237454426,ternary
Dy0.118V0.171Rh0.711,Dy,V,0.11836697454777975,0.17083366550396836,1909.3702490881794,3660.9826625839237,12113.416082252868,2.043489124401774,1.3973467898191119,0.0,Rh,0.7107993599482518,ternary
Tc0.376Cu0.396Sm0.228,Tc,Cu,0.37603531336799245,0.3958915694023116,1857.6655592051281,3668.860788729075,9672.412519734868,1.7335066244223216,1.464036558614848,0.0,Sm,0.22807311722969592,ternary
Ag0.411Cu0.137Yb0.452,Ag,Cu,0.41115637131785976,0.13717982973847018,1251.7316663523984,1935.2203262701012,8240.895100794307,1.5510036519845998,1.633454612406933,0.0,Yb,0.45166379894367004,ternary
Pd0.552Ir0.300Tb0.148,Pd,Ir,0.5518299667660869,0.3000296877923151,2111.6555805811013,3818.1967973515953,15116.897253704568,2.0370456200142426,1.4368476365149436,0.0,Tb,0.14814034544159804,ternary
Fe0.313Pd0.447Ho0.240,Fe,Pd,0.31267168201580386,0.4472576854498831,1775.2380131579832,3027.0415912151593,13093.005034791837,1.851442964095869,1.4840247213870095,0.0,Ho,0.24007063253431304,ternary
La0.415Tc0.235Mn0.351,La,Tc,0.4147841011459935,0.23469984380662165,1742.459544653956,3577.654714915143,7683.208879103136,1.4454920998166205,1.6163962634399653,0.0,Mn,0.3505160550473848,ternary
Gd0.196Er0.286Tb0.518,Gd,Er,0.1963137101920134,0.28607112975285254,1594.5056134776512,3358.852262856093,8644.817757407141,1.1596813291846009,1.7598156855096008,0.0,Tb,0.5176151600551341,ternary
Dy0.402Tb0.310Sc0.288,Dy,Tb,0.4024723461420948,0.30984323628830834,1382.5569758402744,2631.2669104838005,6410.814811471034,1.2230946301051466,1.7068473373645603,0.0,Sc,0.28768441756959684,ternary
Zn0.289Ta0.582Hg0.129,Zn,Ta,0.2894709506105999,0.5820088505879314,2189.8751232232253,3668.101402135102,13495.136977004484,1.6076807419923245,1.4274789148790135,0.0,Hg,0.1285201988014687,ternary
Rh0.162Mn0.155Ag0.683,Rh,Mn,0.16231061194639715,0.15499506624035256,1227.9028266980001,2467.6960975925977,11911.825202258875,1.9279105890099049,1.5284233337653301,0.0,Ag,0.6826943218132503,ternary
Ce0.265Au0.144Mn0.591,Ce,Au,0.26467875480717973,0.1444870790944229,1391.3885917184084,3039.793585048845,10813.063314342551,1.5792303437363913,1.5118810857085099,0.0,Mn,0.5908341660983973,ternary
W0.534Ag0.213Zn0.253,W,Ag,0.5344276852834872,0.21288273436444546,2245.248659480426,3892.145382381488,13934.822811191505,2.0890508221733204,1.4032206835911114,0.0,Zn,0.25268958035206734,ternary
Al0.590Co0.211Ir0.199,Al,Co,0.5897426067619528,0.21111278600481279,1182.0404608739586,3157.164448059023,8685.083416390615,1.784495770488908,1.2910257393238047,0.0,Ir,0.19914460723323443,ternary
Co0.363Ni0.538Nb0.099,Co,Ni,0.36323783668997667,0.5377559621131031,1943.3830936902605,3581.1431677103433,8538.492327461952,1.8684109425282553,1.3599006201196921,0.0,Nb,0.09900620119692027,ternary
Nd0.364Ba0.450Co0.185,Nd,Ba,0.3644800594035543,0.45022776787041896,1168.5064006104217,3140.926709220643,5424.002332537044,1.1645592658496549,1.8924222439981124,0.0,Co,0.18529217272602672,ternary
Cd0.403Ce0.548Ag0.050,Cd,Ce,0.4028774238661208,0.5476149875987913,912.0527137879834,2571.5551652651443,8793.872139502399,1.3906916324443905,1.7175477340502514,0.0,Ag,0.05,ternary
Zr0.190Ta0.503Ir0.307,Zr,Ta,0.19033624211390646,0.5030424980122489,3181.578993717088,4539.972999020277,14593.331234204252,1.6822777207523272,1.4383714982240063,0.0,Ir,0.3066212598738447,ternary
Ho0.397La0.525Ce0.078,Ho,La,0.39730848924078466,0.5248150080541195,1479.1530407172168,3414.3428926696147,6911.17829501089,1.1532076336554042,1.8627506518813335,0.0,Ce,0.07787650270509583,ternary
Sr0.230Nd0.443Cu0.327,Sr,Nd,0.22953051555714557,0.4433291744946145,1388.174311720655,2976.8482686957705,6570.683428441701,1.3450158376048047,1.720859422359452,0.0,Cu,0.32714030994823995,ternary
Tm0.163Zn0.289Dy0.547,Tm,Zn,0.1631841798971226,0.2894003323002188,1527.273919852946,2174.1770330475515,9565.207749320385,1.3493376682860077,1.6342398670799125,0.0,Dy,0.5474154878026586,ternary
Lu0.543Ag0.414Cr0.050,Lu,Ag,0.5427566880414157,0.41421051149457094,1534.0918648297788,3357.394552824331,11483.38344862309,1.57172728099712,1.6825610224637912,0.0,Cr,0.05,ternary
Os0.439Tm0.309Rh0.252,Os,Tm,0.43910761255287745,0.30912187437261174,2221.9709052926555,3869.3165277886496,17765.236859772325,1.9264758603919798,1.4516933691214007,0.0,Rh,0.2517705130745108,ternary
Ca0.516Nb0.467Mg0.050,Ca,Nb,0.5158264908094349,0.4672357177093994,2126.788110356041,3261.66657475332,4531.339892432374,1.3289036391444742,1.680979474135612,0.0,Mg,0.05,ternary
Sc0.576Cd0.360Ag0.063,Sc,Cd,0.5763081611237119,0.36029733174173906,1465.6923947353257,2591.629899072472,4861.078672620358,1.5150329885414668,1.5819851334129131,0.0,Ag,0.06339450713454908,ternary
Tm0.418Ru0.143Hf0.439,Tm,Ru,0.4178176241290624,0.14347114245390388,1964.1942824272571,3785.939544971013,12232.759956090751,1.4082331470020604,1.5976957392123365,0.0,Hf,0.43871123341703366,ternary
Hf0.523Au0.417Ta0.060,Hf,Au,0.5226228039344422,0.4173383402804839,2003.5717403757992,4483.42720328806,14873.43028677785,1.829507313104815,1.4605284463653958,0.0,Ta,0.06003885578507395,ternary
Mn0.572Yb0.183Rh0.245,Mn,Yb,0.5724334742636741,0.18255656277878843,1275.746598804193,2467.2195029848194,8579.759480499406,1.6467068197085477,1.4516442988246991,0.0,Rh,0.2450099629575375,ternary
Cr0.243Fe0.565Lu0.192,Cr,Fe,0.2429254321536413,0.5647945034982657,1869.527540695419,2822.0568512682185,6607.969409326644,1.6810258404989489,1.4672980225218324,0.0,Lu,0.19228006434809308,ternary
Al0.354Hg0.465Ho0.180,Al,Hg,0.35434118111596036,0.4653986831621393,713.7106214876162,1985.5359754526348,2861.4481747254003,1.7230066348589124,1.4564797386514847,0.0,Ho,0.18026013572190036,ternary
Sr0.443Ba0.438Sc0.119,Sr,Ba,0.44256093203259417,0.4383870828452726,1251.945808997869,1874.7669117136995,2705.2356074391796,0.9725080889293582,2.0181372683779375,0.0,Sc,0.11905198512213322,ternary
La0.303Er0.408Ni0.289,La,Er,0.30273572584204467,0.40814330350676176,1675.51374481178,3548.143058844487,8461.92178626319,1.3913280487184134,1.6948987569079315,0.0,Ni,0.2891209706511936,ternary
Lu0.312Al0.367Tm0.320,Lu,Al,0.312489454830407,0.36716241147245443,1219.1891649029665,2635.4975415888853,7031.574134612416,1.3884282572266917,1.5664187942637728,0.0,Tm,0.32034813369713855,ternary
Re0.413Rh0.547Lu0.050,Re,Rh,0.41284908836871037,0.5469424798182961,2881.6833989374313,5143.5740164312165,16210.082661638677,2.0949421218862647,1.3832186170524587,0.0,Lu,0.05,ternary
Y0.121Ho0.324Sm0.554,Y,Ho,0.12117799076204575,0.3243260218376196,1576.661114901243,2580.891359318585,7983.829258285449,1.1955184608483593,1.811508498278136,0.0,Sm,0.5544959874003347,ternary
Zr0.552Ho0.187Y0.261,Zr,Ho,0.5518993095497361,0.18740709750027348,2029.9776802124175,4112.603919901553,6235.526707423044,1.2825829950254737,1.6526548177375524,0.0,Y,0.2606935929499904,ternary
Os0.277Cu0.125Sc0.598,Os,Cu,0.27664576676668073,0.125453282232293,2187.1562697647246,3899.0203595401517,9403.71211445642,1.66012721648945,1.4856429494119225,0.0,Sc,0.5979009510010262,ternary
Ba0.287Ir0.157Zr0.557,Ba,Ir,0.28664184946465643,0.15661675459876132,1972.7315917418546,4488.532891741286,8395.287953948875,1.3401341627364736,1.6906617587590418,0.0,Zr,0.5567413959365822,ternary
Ho0.473Rh0.501La0.050,Ho,Rh,0.47341655389365217,0.5012951053146878,1872.0251018025094,3910.7244986380433,9248.634236565222,1.78025520140668,1.6027273614887199,0.0,La,0.05,ternary
Cd0.247Hf0.207Sr0.547,Cd,Hf,0.24677251974027894,0.2065329723143365,1104.3333113710314,2241.3053313814053,6647.774744454542,1.204898204917824,1.7960125285754232,0.0,Sr,0.5466945079453845,ternary
Lu0.297Gd0.562Pr0.142,Lu,Gd,0.2968107380623489,0.5615281831652663,1429.253638640329,3436.971065481485,7795.239046421678,1.2108604761502975,1.7922425170355019,0.0,Pr,0.14166107877238476,ternary
Tb0.484Sc0.504V0.050,Tb,Sc,0.4841508373205535,0.5036255033974724,1723.2514203349692,3767.585587618832,6196.987309691109,1.2989966056731712,1.7205647707469245,0.0,V,0.05,ternary
Ba0.103Cr0.330Re0.567,Ba,Cr,0.10294555207911968,0.3301769380590014,2778.237809048538,4272.901246599496,12659.413565133318,1.716782527265929,1.4488652885662456,0.0,Re,0.5668775098618789,ternary
Hf0.103Re0.545Co0.352,Hf,Re,0.10257720556006464,0.5450981383116305,3158.209809724405,5112.587055504413,14831.184875835625,1.831407183541395,1.3705154411120128,0.0,Co,0.3523246561283049,ternary
Nb0.104Pt0.315Re0.580,Nb,Pt,0.10443186648688382,0.31540190835314286,3149.251172446272,5184.78037686545,19175.092642343418,1.9885231652281288,1.3604431866486886,0.0,Re,0.5801662251599733,ternary
Mo0.357Fe0.177Y0.466,Mo,Fe,0.35715929977040717,0.17685533318936472,2288.364684124664,3694.4868778023615,6902.324416333021,1.6636114950296954,1.6042521118046116,0.0,Y,0.4659853670402281,ternary
Ni0.178Ba0.428Al0.394,Ni,Ba,0.17781520027461498,0.42831672299703494,1116.6455589660802,2455.019370137652,4428.538088491236,1.3549565195245195,1.653266570724793,0.0,Al,0.3938680767283501,ternary
Ru0.287Sr0.282Pt0.431,Ru,Sr,0.2871547337594813,0.2822478489143456,2283.6015112499326,3237.6541416472637,11148.49121868312,1.881637982243162,1.5191033651063506,0.0,Pt,0.43059741732617307,ternary