formula,element_1,element_2,composition_1,composition_2,melting_point,boiling_point,density,electronegativity,atomic_radius,electronegativity_difference,element_3,composition_3,alloy_type
Y0.460Zn0.540,Y,Zn,0.45950735983653457,0.5404926401634654,1203.494370241004,1959.6036449988387,4867.8119351679425,1.4524118352702902,1.5567783119264407,0.42999999999999994,,,binary
Pd0.394La0.606,Pd,La,0.39369016560363157,0.6063098343963684,1495.934920883063,3407.376945280465,8630.840605653153,1.5330591821639947,1.7334704089180026,1.1,,,binary
Al0.505Gd0.495,Al,Gd,0.5047661863508437,0.4952338136491563,1253.8818454207012,2846.0577882170955,5251.836202629006,1.4069541364038458,1.522378597507036,0.41000000000000014,,,binary
Yb0.806Nb0.194,Yb,Nb,0.8063458980245581,0.19365410197544186,1242.366183099395,2455.990183214507,6013.917843490051,1.196827050987721,1.6919037694073675,0.5,,,binary
Eu0.721Os0.279,Eu,Os,0.7208132542383511,0.2791867457616489,1681.5847405722916,2483.947461246784,10668.04644062265,1.479186745761649,1.696447289831093,1.0000000000000002,,,binary
Rh0.677Ta0.323,Rh,Ta,0.6768028501471386,0.3231971498528614,2491.905909907169,4302.436168794348,14985.479922167706,2.0279062231147678,1.3823197149852862,0.7799999999999998,,,binary
Dy0.755La0.245,Dy,La,0.7552397870271852,0.2447602129728148,1565.3953082589753,3219.164291577318,7180.985465109167,1.1906287744432622,1.7989520425945629,0.11999999999999988,,,binary
Mo0.647Y0.353,Mo,Y,0.6465793460461446,0.35342065395385536,2155.9276537852265,4499.216435952898,7965.007332629857,1.827784585283376,1.5736972288838493,0.9400000000000002,,,binary
Ce0.590Zn0.410,Ce,Zn,0.5904313938804214,0.40956860611957857,971.5544245082383,2607.325645160114,7014.678393953851,1.3370713612433767,1.6452156969402107,0.5299999999999998,,,binary
Ta0.613Au0.387,Ta,Au,0.6127231438280585,0.3872768561719415,2122.4473155021283,5615.272101275607,17385.96487707943,1.9027679304188192,1.4112723143828059,1.04,,,binary
Ni0.519Co0.481,Ni,Co,0.5185604313545884,0.4814395686454116,1869.143995100801,2925.7978091707805,9178.405073822476,1.8955568129406375,1.35,0.030000000000000027,,,binary
Mn0.768V0.232,Mn,V,0.7681546863186332,0.23184531368136685,1454.9864874339514,2765.6838260595077,6900.0019379200585,1.5685476250945094,1.3884077343159316,0.07999999999999985,,,binary
Cu0.799Nb0.201,Cu,Nb,0.7987942220644578,0.20120577793554217,1642.6758174428487,3814.459883431624,7758.83181823953,1.8396382666193374,1.3701205777935543,0.2999999999999998,,,binary
Mo0.488Co0.512,Mo,Co,0.4882962297893563,0.5117037702106437,2160.0783315303624,4220.537539795623,11582.654311125143,2.0167229443410197,1.3988296229789356,0.28000000000000025,,,binary
Co0.557V0.443,Co,V,0.5568097450837592,0.44319025491624076,1924.9713341005208,3614.470196901513,7581.521611535341,1.7692024362709398,1.35,0.25,,,binary
Ir0.492Dy0.508,Ir,Dy,0.4919277103294215,0.5080722896705785,2628.4302701176257,3099.312308572834,15633.225455092874,1.702089156122833,1.5532289158682313,0.9800000000000002,,,binary
Eu0.572Er0.428,Eu,Er,0.5722407296653899,0.42775927033461014,1172.1849682193224,1778.6590416082265,7083.516981907296,1.2171103708133844,1.8072240729665392,0.040000000000000036,,,binary
Cr0.277Os0.723,Cr,Os,0.2765782273170568,0.7234217726829433,3036.346548260053,4505.436374927295,18136.66688132658,2.0506477572487896,1.3276578227317057,0.5400000000000003,,,binary
Tm0.110Mn0.890,Tm,Mn,0.11046888786680116,0.8895311121331988,2032.8956257211275,2261.7964517863907,8065.9717256916365,1.5168593336399598,1.4386641107533802,0.30000000000000004,,,binary
Tc0.493Tb0.507,Tc,Tb,0.49312440114261935,0.5068755988573806,1892.561683412743,4131.871917249479,9602.592095760117,1.4944995209140957,1.5527502395429522,0.7999999999999998,,,binary
Fe0.741Ca0.259,Fe,Ca,0.7408159592087074,0.25918404079129265,1563.668439193375,3282.230537615007,6968.885547938348,1.6148772461432273,1.503673616316517,0.8300000000000001,,,binary
Cr0.546Os0.454,Cr,Os,0.5464159115760173,0.4535840884239827,2727.5305919419093,3082.8098359744013,13645.86704550042,1.9049354077489506,1.3546415911576017,0.5400000000000003,,,binary
Au0.735Os0.265,Au,Os,0.7353996617104637,0.26460033828953633,2360.5283442896525,3614.1455456376534,22401.659820659577,2.450035884981558,1.3367699830855233,0.33999999999999986,,,binary
Cr0.313Eu0.687,Cr,Eu,0.3126525075973322,0.6873474924026678,1644.1812194184763,2204.9197537720597,5345.435617321425,1.343820153494773,1.7093063715812005,0.45999999999999996,,,binary
V0.156Yb0.844,V,Yb,0.1563105036881953,0.8436894963118047,958.2592363708077,1938.7509521479435,5968.660800822839,1.1828445669547436,1.687475798524722,0.5299999999999998,,,binary
Hf0.856Mn0.144,Hf,Mn,0.8556827856057886,0.1443172143942114,2405.1931063881875,3945.583447379423,12136.51085388013,1.336079303598553,1.5283524178408683,0.25,,,binary
Y0.181Co0.819,Y,Co,0.1809800966094251,0.819019903390575,1779.5908295826205,3361.958958220295,7195.767991180415,1.7605531362377795,1.4314410434742415,0.6599999999999999,,,binary
Ru0.408La0.592,Ru,La,0.40826487058079486,0.5917351294192051,1982.1740596624936,3780.6313943711148,7232.422143472819,1.5490913576388743,1.6846278341224834,1.1,,,binary
Mo0.626Y0.374,Mo,Y,0.625501210980195,0.37449878901980505,2458.080602544852,4439.235811139174,8235.067340248663,1.8079711383213832,1.5810745761569318,0.9400000000000002,,,binary
Pr0.858Gd0.142,Pr,Gd,0.8580026756459349,0.1419973243540651,1433.3704878557098,3473.207686905503,6737.489302871277,1.1399398127047844,1.8429001337822968,0.07000000000000006,,,binary
Ce0.547Lu0.453,Ce,Lu,0.5465132857274091,0.4534867142725909,1295.9440724697286,3951.7163920686417,8268.019411933448,1.1880230071408886,1.8046513285727408,0.1499999999999999,,,binary
Lu0.713Co0.287,Lu,Co,0.713026736012842,0.28697326398715794,1800.9822866773975,2864.6828086543746,10953.399026850744,1.4450536910321663,1.6352106944051368,0.6099999999999999,,,binary
Pr0.640Re0.360,Pr,Re,0.6395940509958302,0.3604059490041698,1771.3715935866103,4134.282877816731,12246.295273809345,1.4075125807332105,1.669797025497915,0.77,,,binary
Er0.442Dy0.558,Er,Dy,0.4416599922348501,0.5583400077651499,1526.4134315064196,2528.9282127751117,6913.957090380144,1.228833199844697,1.75,0.020000000000000018,,,binary
Co0.734Zr0.266,Co,Zr,0.7339692782187255,0.2660307217812745,1998.148385347184,3398.3035531613023,10683.681099987043,1.7336831030202988,1.403206144356255,0.5499999999999998,,,binary
Ce0.504Pt0.496,Ce,Pt,0.5037542244047694,0.49624577559523064,1396.8166292509407,3507.7282515726106,13053.189621935973,1.6956450996904673,1.6018771122023847,1.1599999999999997,,,binary
Dy0.527Zr0.473,Dy,Zr,0.5271203815843676,0.4728796184156324,1937.847500461428,3536.5497171137317,8050.860732190631,1.2720167580257198,1.6554240763168735,0.1100000000000001,,,binary
Sm0.847Mg0.153,Sm,Mg,0.8468159756202941,0.1531840243797059,1155.0621566070163,1695.051123541434,5325.313943345847,1.1914457634131588,1.796385591467103,0.14000000000000012,,,binary
Ta0.893Ce0.107,Ta,Ce,0.8931703924945016,0.10682960750549841,2373.8508889302298,5221.577532472676,15116.766269069169,1.4594047491479107,1.4927318430021992,0.3799999999999999,,,binary
Ta0.430Os0.570,Ta,Os,0.429874633337166,0.570125366662834,3090.8032265977286,6157.703134339311,22509.895663729458,1.8990877566639839,1.3644811950005749,0.7000000000000002,,,binary
Gd0.761Hg0.239,Gd,Hg,0.760923980032609,0.23907601996739103,1219.8298251604012,2323.407125837185,5671.3538342894235,1.3912608159739128,1.7282771940097827,0.8,,,binary
Ta0.293Sm0.707,Ta,Sm,0.2925780449101013,0.7074219550898987,1799.2546258618027,2938.6793135317766,9370.27898815926,1.2665507548203334,1.7329687820359596,0.33000000000000007,,,binary
La0.400Tc0.600,La,Tc,0.4000504598957789,0.5999495401042211,1808.683520371188,4056.8408731095483,8763.382225725805,1.5799596320833769,1.5900302759374674,0.7999999999999998,,,binary
Ce0.303Lu0.697,Ce,Lu,0.3032713017464193,0.6967286982535807,1699.7842022850964,3794.2390925654468,8075.9726052241285,1.2245093047380373,1.780327130174642,0.1499999999999999,,,binary
Mg0.100Pt0.900,Mg,Pt,0.10015650228448676,0.8998434977155132,2174.622401159731,3449.2890888870256,16053.396620344347,2.1828481927840473,1.365023475342673,0.9699999999999998,,,binary
V0.577Cd0.423,V,Cd,0.5766102612990286,0.4233897387009714,1567.836785490103,2352.810601505577,7416.271028943341,1.6554033843220581,1.4346779477401943,0.06000000000000005,,,binary
Y0.895Cu0.105,Y,Cu,0.8947296076436314,0.10527039235636859,1331.296232780664,4062.4864575305605,5272.3719656837675,1.2915838668023305,1.752628323439634,0.6799999999999999,,,binary
Hf0.340Al0.660,Hf,Al,0.34026716938253887,0.6597328306174611,1248.1977984456075,2983.3796406285005,7365.473695221442,1.504517177491413,1.3520801508147615,0.31000000000000005,,,binary
Ru0.785Tc0.215,Ru,Tc,0.784576340406565,0.215423659593435,2379.446700078647,4076.7471760005546,9421.945003131788,2.1353729021219694,1.3107711829796718,0.30000000000000027,,,binary
Ti0.758Er0.242,Ti,Er,0.7578699664828606,0.24213003351713935,1840.4384573814996,3379.789605133846,6012.324756862842,1.467360989944858,1.4847455117309987,0.30000000000000004,,,binary
Ce0.545Sc0.455,Ce,Sc,0.5450584684054148,0.45494153159458517,1210.481989772195,2876.2178015252794,5229.553604972797,1.2291859675827006,1.7362646171013538,0.24,,,binary
Pr0.175Zn0.825,Pr,Zn,0.1754297020300406,0.8245702979699594,861.9176975109145,1346.9711387345394,7814.999721907953,1.5587765549443788,1.4377148510150204,0.52,,,binary
Ca0.225Re0.775,Ca,Re,0.22488568507676235,0.7751143149232377,2942.874726379681,5484.0881082214955,16524.61866749023,1.697602883430914,1.451198558284543,0.8999999999999999,,,binary
Pd0.812Os0.188,Pd,Os,0.8117002819905025,0.18829971800949752,1575.0681724415006,3566.7861787019797,15502.482784569913,2.2,1.3811700281990502,0.0,,,binary
Rh0.305Ru0.695,Rh,Ru,0.3049950707618846,0.6950049292381154,2271.2379974653213,4118.014233898676,12176.092702965358,2.2243996056609507,1.3152497535380943,0.07999999999999963,,,binary
Hf0.556Fe0.444,Hf,Fe,0.5563897275912657,0.4436102724087343,1560.4673452569327,4789.0234079947195,9916.167159369197,1.5351134443766292,1.48345845913869,0.53,,,binary
Pr0.687Tc0.313,Pr,Tc,0.6874127631020639,0.3125872368979361,1670.392606875722,3834.2385284788943,9185.2872383728,1.3706921724114107,1.6937063815510323,0.77,,,binary
Yb0.734Ta0.266,Yb,Ta,0.734323355451424,0.265676644548576,1747.8312405688355,2540.2026827321806,8421.695980897375,1.2062706578194304,1.6702970066354272,0.3999999999999999,,,binary
Nb0.761Ba0.239,Nb,Ba,0.7605641955079084,0.23943580449209156,2516.965330722676,3517.8747049651824,7833.730377495855,1.430000578810615,1.617605063144464,0.7100000000000001,,,binary
Er0.756Pr0.244,Er,Pr,0.7556122118690947,0.24438778813090534,1474.740220703883,3650.3889524175124,8609.786187082547,1.2131173433056004,1.7744387788130904,0.1100000000000001,,,binary
Co0.614Sm0.386,Co,Sm,0.6138036984228685,0.3861963015771315,1707.9975740138332,2788.592768953529,6847.633719051107,1.6058006258802364,1.5430981507885657,0.71,,,binary
V0.747Yb0.253,V,Yb,0.7466729377286655,0.2533270622713345,1743.6694285587669,3329.6722022699837,6330.2992007683,1.4957366569961927,1.451330824908534,0.5299999999999998,,,binary
Ir0.724Fe0.276,Ir,Fe,0.7240975264067812,0.27590247359321884,2776.1978698128405,4440.805056729813,16777.784006132897,2.0979160847705094,1.363795123679661,0.3700000000000001,,,binary
W0.804Re0.196,W,Re,0.8038340021201473,0.19616599787985267,3358.244518509056,5896.105835569722,15062.332182085096,2.2697636409752677,1.35,0.45999999999999996,,,binary
Hg0.844Au0.156,Hg,Au,0.8441968671550221,0.15580313284497793,474.14300652281713,1064.2757935031682,3375.9698241637957,2.0841336917362883,1.4766295300732533,0.54,,,binary
Ni0.698Ru0.302,Ni,Ru,0.6981429258154581,0.3018570741845419,1678.2654685549749,4002.3873755602517,12174.046570902645,1.9975385515135171,1.334907146290773,0.29000000000000026,,,binary
Sm0.607Al0.393,Sm,Al,0.6071096824253714,0.39289031757462856,1027.0124827160794,2539.1527428117565,5525.494583595748,1.3428717397328365,1.614265809455223,0.44000000000000017,,,binary
Gd0.143Ir0.857,Gd,Ir,0.14330235901345845,0.8566976409865416,2176.149091655126,4755.574193102305,22248.357185639466,2.056697640986542,1.4144860615560564,1.0000000000000002,,,binary
Y0.355V0.645,Y,V,0.35545323216873237,0.6445467678312676,1923.4850516413994,4080.8776555214404,4606.419529064797,1.4842641748108196,1.5099539544759297,0.4099999999999999,,,binary
Pr0.361Zn0.639,Pr,Zn,0.36146530212403305,0.638534697875967,747.5686632318302,2069.2564222967744,6976.933642551598,1.4620380428955029,1.5307326510620167,0.52,,,binary
Er0.223Ru0.777,Er,Ru,0.22255798608374483,0.7774420139162552,2253.8681845438277,4472.664986006104,12252.346344856258,1.9863443333596054,1.4001510937376853,0.9600000000000002,,,binary
Ho0.898Yb0.102,Ho,Yb,0.8978938424163025,0.10210615758369745,1812.178216778952,2802.451604154221,9084.09335289794,1.2167261995141192,1.75,0.1299999999999999,,,binary
Mg0.560Sm0.440,Mg,Sm,0.5602038830800614,0.4397961169199386,1059.1894378593652,2020.9126626859415,3865.5802042156274,1.2484285436312086,1.6539286409219784,0.14000000000000012,,,binary
Fe0.446Ru0.554,Fe,Ru,0.4455485361205519,0.5544514638794481,2726.5286349594594,3862.1152190513717,8940.847256929512,2.035147041635396,1.3445548536120553,0.3700000000000001,,,binary
Pt0.206Zn0.794,Pt,Zn,0.20575123629670244,0.7942487637032976,1102.9092403049929,1802.7973654347304,10862.22452308218,1.7796232788669224,1.35,0.6299999999999999,,,binary
Fe0.557Sr0.443,Fe,Sr,0.5571524724085035,0.4428475275914965,1654.388541052404,2562.8086519642243,5222.912767446893,1.4402941757194831,1.665708516554898,0.8800000000000001,,,binary
Cr0.419Ce0.581,Cr,Ce,0.41935303963755355,0.5806469603624465,1684.0262916383929,3344.3184023504336,7349.870022644476,1.346450641404279,1.6612911321631008,0.5399999999999998,,,binary
Fe0.501Pt0.499,Fe,Pt,0.5014584924846357,0.4985415075153643,1511.0847534525067,3776.159757078181,13539.155473411558,2.0543436783819136,1.3750729246242317,0.44999999999999973,,,binary
Er0.710Cu0.290,Er,Cu,0.7096263357095167,0.2903736642904833,1949.6072175041152,3354.9112582877424,9240.043611161029,1.431646618431719,1.6338505342838066,0.6599999999999999,,,binary
Sr0.258Ce0.742,Sr,Ce,0.25848682217515173,0.7415131778248483,1115.0588759860595,2810.0284801584103,6555.28661994691,1.0760572402302242,1.8887730233262727,0.17000000000000015,,,binary
Pt0.557Tb0.443,Pt,Tb,0.5570645463234144,0.4429354536765856,2228.8760935165656,3985.114259904096,17836.446292850596,1.757336164661629,1.5271741814706343,1.1799999999999997,,,binary
Ce0.898Eu0.102,Ce,Eu,0.897663013551639,0.10233698644836098,1010.2068597360391,3170.7774961317828,6567.892436323492,1.128186958915869,1.85,0.07999999999999985,,,binary
Y0.294Rh0.706,Y,Rh,0.2938520733812092,0.7061479266187908,2199.991097466502,3710.3294700726024,10649.097770837907,1.968516802215918,1.4822334330215443,1.0599999999999998,,,binary
Ag0.359Hg0.641,Ag,Hg,0.358729312924969,0.641270687075031,611.4452495531527,1149.9028091245198,3958.2959621559885,1.974888948095252,1.5358729312924968,0.07000000000000006,,,binary
Pr0.190Fe0.810,Pr,Fe,0.1900238971218321,0.8099761028781679,1842.9058673404845,3270.656558193808,8520.077240981278,1.6969832720147175,1.4855107537048244,0.7000000000000002,,,binary
Au0.392Hg0.608,Au,Hg,0.39221411554996877,0.6077858844500312,585.743038800264,1685.413440641936,6683.861248559512,2.2117956223969832,1.4411678826675047,0.54,,,binary
Mo0.397Ta0.112Re0.491,Mo,Ta,0.39693857452053527,0.11210341516763453,2858.2251349309727,5128.309456884221,14734.539635438616,1.9583626633082853,1.400904198968817,0.0,Re,0.4909580103118302,ternary
Hf0.386Zr0.576Re0.050,Hf,Zr,0.38647209224183604,0.575950936820369,2237.3580648583325,4770.102848704743,10777.506893566775,1.3634284658854778,1.5592556950464176,0.0,Re,0.05,ternary
Mg0.320Eu0.562Zn0.118,Mg,Eu,0.32023171203165335,0.5621066034517136,962.8810287381403,1335.452494144228,4839.640021927491,1.2881732463559668,1.6790880585306047,0.0,Zn,0.11766168451663306,ternary
Ru0.287Mo0.479Ho0.234,Ru,Mo,0.2869103951602847,0.47886689129653104,2328.218522673346,4296.847125407026,11002.106296867094,1.95364929221125,1.4772302547889125,0.0,Ho,0.23422271354318425,ternary
Fe0.127Ni0.574Lu0.298,Fe,Ni,0.12726900668087712,0.5744704575128944,1833.1970458654316,3689.071434022311,9488.402989644292,1.7089317365495436,1.4756676646565352,0.0,Lu,0.29826053580622847,ternary
Zn0.272Cd0.502Al0.226,Zn,Cd,0.27163568621052514,0.5021403868171498,637.6171383272525,1795.574709810242,7027.767307535534,1.661036658393793,1.4278056846661975,0.0,Al,0.22622392697232507,ternary
Hf0.111Mg0.205Sr0.684,Hf,Mg,0.11137405757560101,0.20450477056210106,1168.7111934044187,2142.373444996932,3727.783402477928,1.062602637553817,1.847629288809929,0.0,Sr,0.6841211718622979,ternary
La0.475Tc0.374Y0.150,La,Tc,0.47517757437623287,0.37440002740556866,1817.0455025259084,5022.471858875938,7681.41964627105,1.4175707097106387,1.702796623823929,0.0,Y,0.15042239821819847,ternary
Eu0.448Yb0.434Zn0.118,Eu,Yb,0.4475355718238474,0.43413029096420297,1016.6837233483051,1601.389337571665,6691.6444812372565,1.209837332648957,1.747419902297605,0.0,Zn,0.11833413721194963,ternary
Ir0.363Nd0.228Dy0.409,Ir,Nd,0.3633995452652946,0.22772817228108513,1679.6850111566625,2922.6621507610926,12496.374601916861,1.5579133005775019,1.6274129991219908,0.0,Dy,0.4088722824536203,ternary
Cr0.495Cd0.409Mo0.096,Cr,Cd,0.49459424725371104,0.4089823881956989,1338.976439415306,2255.008437600679,8465.364247670388,1.720481153921166,1.4661685264568844,0.0,Mo,0.09642336455059008,ternary
Cr0.573Ca0.133Tb0.294,Cr,Ca,0.5725882411313585,0.13329889621080884,1708.8777394190038,2529.243306481424,6758.747486858276,1.40731952541248,1.556259060414565,0.0,Tb,0.29411286265783265,ternary
Dy0.532Ag0.110Os0.358,Dy,Ag,0.5321411367799768,0.10953916196709709,2404.8316057718675,3049.3801132519175,14933.016923603434,1.6489261122245065,1.5723252601411186,0.0,Os,0.3583197012529261,ternary
Tb0.590Ir0.354Ru0.056,Tb,Ir,0.5898964255329266,0.3542701660715488,2246.5867845674356,4358.392095426095,15215.890868071754,1.5511139319137808,1.5831668997933945,0.0,Ru,0.05583340839552453,ternary
Tm0.342Co0.399Ta0.259,Tm,Co,0.3423310759170828,0.39855320428148155,2659.4175617894916,3395.9714384201734,11173.369660559201,1.5658674486476922,1.5128440023469767,0.0,Ta,0.25911571980143566,ternary
Fe0.350Nb0.329Mo0.321,Fe,Nb,0.3503254114344394,0.3289931310738904,2365.0925925483252,4324.520418818271,10234.893213872878,1.8601564608252565,1.4324837294282782,0.0,Mo,0.3206814574916702,ternary
Tm0.224Ti0.365V0.412,Tm,Ti,0.22369606987487564,0.36470768192756,1742.3279293705675,3025.2757785693493,7103.526848311123,1.5121718020740667,1.4577138120463282,0.0,V,0.41159624819756435,ternary
W0.472Ba0.109Pt0.419,W,Ba,0.4721953599043386,0.10918611268244646,2984.7943319403457,4530.714989249755,19865.36691095083,2.1660069321637465,1.4373488901459572,0.0,Pt,0.4186185274132149,ternary
Ho0.251Re0.598Gd0.151,Ho,Re,0.2511631058015107,0.5979972056234042,2836.667962464675,5511.834362255396,16089.661934560327,1.6261329371104283,1.5183431021793925,0.0,Gd,0.15083968857508512,ternary
Sc0.412Ag0.539Cr0.050,Sc,Ag,0.4119271475454815,0.5386209758759828,1677.4342092346124,3460.057997323538,7669.565175285422,1.6827594041025016,1.590876997474343,0.0,Cr,0.05,ternary
Ti0.213Ce0.271Ag0.516,Ti,Ce,0.21279134881387715,0.2708930764242087,1346.5651606540275,3215.57625676,7888.141857850945,1.6275879820589787,1.6251649993432766,0.0,Ag,0.5163155747619141,ternary
Pt0.144Dy0.291Cu0.565,Pt,Dy,0.14389750856865072,0.29110356092720413,1920.0668038222825,3282.4851945703613,10275.49374237899,1.7567306318255884,1.4664414243708817,0.0,Cu,0.5649989305041452,ternary
Ho0.443Eu0.309Gd0.248,Ho,Eu,0.4432616562673002,0.3086666682375997,1375.5942261924936,3058.658723079318,8125.557496714668,1.213297849688019,1.793270250598515,0.0,Gd,0.24807167549510012,ternary
Pr0.488Zn0.506Hg0.050,Pr,Zn,0.48766552327977064,0.5056187196717872,903.7471424791936,2502.046079989383,5815.124910610843,1.4853329287645898,1.6597664896244884,0.0,Hg,0.05,ternary