formula,element_1,element_2,composition_1,composition_2,melting_point,boiling_point,density,electronegativity,atomic_radius,electronegativity_difference,element_3,composition_3,alloy_type
Zr0.186Hf0.814,Zr,Hf,0.18647899972608528,0.8135210002739147,2246.0728330568354,4302.32401381598,14152.236002336473,1.3055943699917825,1.55,0.030000000000000027,,,binary
Ti0.561Hf0.439,Ti,Hf,0.5606373827299314,0.43936261727006864,2394.0823239546135,4664.396286874759,8979.088481455241,1.4345529718551835,1.4659043925905104,0.24,,,binary
Ir0.853Pt0.147,Ir,Pt,0.8531764788330477,0.1468235211669523,2338.892841336037,4370.532257877049,23518.179823545943,2.211745881693356,1.35,0.07999999999999963,,,binary
Mo0.574Mn0.426,Mo,Mn,0.5736782889998818,0.4263217110001182,2026.7711919717399,4084.804839926106,8863.77160050112,1.899943756289928,1.4286839144499939,0.6100000000000001,,,binary
Gd0.182Rh0.818,Gd,Rh,0.18152104435678124,0.8184789556432188,2039.236933191569,4163.589138925752,12140.68402751214,2.083957272094676,1.4316844699605518,1.0799999999999998,,,binary
Hf0.580Ho0.420,Hf,Ho,0.5803292918534754,0.41967070814652463,2103.2508828767263,4559.434396856625,10181.132775111635,1.2706230504297433,1.633934141629305,0.07000000000000006,,,binary
Ni0.726Pr0.274,Ni,Pr,0.7261082770888158,0.27389172291118424,1683.237594407561,3484.3434366340407,8030.298208976748,1.6963644561292763,1.4869458614555922,0.78,,,binary
Re0.443La0.557,Re,La,0.4427024105877956,0.5572975894122044,2267.7878116473653,4098.140539479726,13907.111875104634,1.4541619284702363,1.6843785536473228,0.7999999999999998,,,binary
Os0.505Mn0.495,Os,Mn,0.5047686317416623,0.4952313682583377,2376.256339319286,3623.7053096271743,16697.480501006565,1.8780996106320806,1.3495231368258338,0.6500000000000001,,,binary
W0.780Al0.220,W,Al,0.7796605015996619,0.22033949840033806,2869.1283631127676,4432.417158763006,13174.513447525162,2.194745376199746,1.3279660501599664,0.7499999999999998,,,binary
Ba0.447Co0.553,Ba,Co,0.44681872106067877,0.5531812789393212,1511.1901394029967,2378.4482825015843,7630.797548596899,1.437649466149928,1.707454976848543,0.9899999999999999,,,binary
Os0.813Gd0.187,Os,Gd,0.8132600118440826,0.1867399881559174,2363.2435654353862,5796.721833648748,20282.390605690962,2.013260011844083,1.3933699940779587,1.0000000000000002,,,binary
Ca0.222Tm0.778,Ca,Tm,0.22239291927508795,0.777607080724912,1645.5873682946326,2003.8766610463413,7895.840079519346,1.194401770181228,1.7611196459637544,0.25,,,binary
Nb0.517Yb0.483,Nb,Yb,0.517397397550784,0.48260260244921604,1944.9106336460968,3669.3370043501363,7691.662577901746,1.3586986987753922,1.594780780734765,0.5,,,binary
Tb0.593Ag0.407,Tb,Ag,0.5927298832428408,0.4072701167571592,1490.5789849497228,2956.4779972163406,9091.839866857557,1.4380341969084423,1.6889094824864261,0.8299999999999998,,,binary
La0.472Sr0.528,La,Sr,0.4718990173076063,0.5281009826923937,1151.8778395460536,2188.7850866700305,3710.9336654943527,1.020784852596141,1.9764050491346197,0.15000000000000013,,,binary
Yb0.315Nd0.685,Yb,Nd,0.31471643043938025,0.6852835695606198,1325.7797184559784,2821.1742285127793,6603.8383115932975,1.1274113427824248,1.8185283569560622,0.039999999999999813,,,binary
Rh0.323Fe0.677,Rh,Fe,0.32314259935397616,0.6768574006460238,1952.2508918163417,3521.800393531819,8847.879469582942,1.9754141697092893,1.383842870032301,0.44999999999999973,,,binary
Mg0.700Rh0.300,Mg,Rh,0.700381025461605,0.29961897453839503,1214.220001298187,2185.4870045897337,4463.4667179183125,1.600630405302243,1.4550571538192407,0.9699999999999998,,,binary
Pr0.635Eu0.365,Pr,Eu,0.6345507763563949,0.3654492236436051,1215.8567348995293,2421.777725602129,6760.6880906155475,1.1555814456550522,1.85,0.07000000000000006,,,binary
W0.495Ti0.505,W,Ti,0.49544520289273764,0.5045547971072624,2942.811292895585,4803.585591567398,12972.039206572708,1.9462650663720449,1.375227739855363,0.8199999999999998,,,binary
Ta0.490Nb0.510,Ta,Nb,0.49003994591307554,0.5099600540869245,3516.699089381208,5911.289627219861,10222.995204452767,1.5509960054086926,1.45,0.10000000000000009,,,binary
Re0.372Pd0.628,Re,Pd,0.37227107453142694,0.6277289254685731,2123.602221147702,3952.7543716244636,15412.430862312622,2.088318677640572,1.3813864462734284,0.30000000000000027,,,binary
Sm0.804Er0.196,Sm,Er,0.8040858762041841,0.19591412379581585,1508.7926366310883,2118.8415873953127,7832.198405296189,1.183713988665707,1.8304085876204184,0.07000000000000006,,,binary
Ce0.513Al0.487,Ce,Al,0.5133018013719474,0.48669819862805264,926.7955023362331,3026.5526270923415,4079.73996539329,1.358482117327746,1.5579810808231684,0.49,,,binary
Mo0.293Fe0.707,Mo,Fe,0.29308484029814397,0.706915159701856,1932.4409658211644,3161.0499508181424,7741.944640609061,1.9267179972983877,1.414654242014907,0.33000000000000007,,,binary
Au0.544Ba0.456,Au,Ba,0.5441409692654887,0.4558590307345113,1308.2593825294352,2425.1293802244513,15287.69096914733,1.7878325992880564,1.714687224587609,1.65,,,binary
Rh0.481Er0.519,Rh,Er,0.48087448862733184,0.5191255113726682,2110.3955320009068,3604.09085070074,9775.413323851031,1.7401094681724252,1.5576502045490672,1.0399999999999998,,,binary
Tm0.459Ba0.541,Tm,Ba,0.4585396396692566,0.5414603603307434,1471.3840160828024,2054.212362919401,6249.909707165945,1.0550742702809324,1.9665841441322973,0.36,,,binary
Ti0.335Fe0.665,Ti,Fe,0.33538846505639786,0.6646115349436021,2329.39390704597,3245.3978530533977,7519.902824504707,1.7327373451336445,1.4,0.29000000000000004,,,binary
Pt0.295Er0.705,Pt,Er,0.29464413110140575,0.7053558688985943,1740.8653610233862,3410.9979626203854,14841.568320634364,1.546429896345462,1.6321423475594379,1.0399999999999998,,,binary
Dy0.395Nd0.605,Dy,Nd,0.3952163605288296,0.6047836394711704,1357.5599721233298,3735.509291548601,8022.273285125505,1.1716173088423063,1.8104783639471171,0.08000000000000007,,,binary
Ce0.375Y0.625,Ce,Y,0.37500591531696204,0.624994084683038,1439.1017666301964,3846.8052709360354,5819.171485119589,1.1824994084683038,1.8187502957658481,0.09999999999999987,,,binary
Lu0.365Ce0.635,Lu,Ce,0.36463303775674416,0.6353669622432558,1466.3307887527342,3075.4472124493677,7268.369705707178,1.1746949556635118,1.8135366962243258,0.1499999999999999,,,binary
Er0.317Ca0.683,Er,Ca,0.3167331415809571,0.6832668584190429,1299.61144211101,2179.017860572056,4174.525574631839,1.0760159539794296,1.7841633429209522,0.24,,,binary
Pd0.197Ru0.803,Pd,Ru,0.19652470780184467,0.8034752921981554,2497.5234309697767,3630.2525845630907,12769.517944063457,2.2,1.3196524707801847,0.0,,,binary
Mo0.196Ta0.804,Mo,Ta,0.19564379300404228,0.8043562069959578,3409.092437695021,5882.6139900169255,17068.55654478033,1.6291249033826682,1.45,0.6600000000000001,,,binary
La0.248Er0.752,La,Er,0.24811987395012958,0.7518801260498704,1788.5667880279464,3441.4553155470194,8282.961310242172,1.2052632176469817,1.7996239747900258,0.1399999999999999,,,binary
Tc0.487Lu0.513,Tc,Lu,0.48735886977016696,0.512641130229833,1810.502305345923,4271.544743092777,10870.705956498121,1.5770360879552052,1.5550564520919332,0.6299999999999999,,,binary
Yb0.881Nd0.119,Yb,Nd,0.8812856183064455,0.11871438169355453,1151.1798810538176,1478.619190215661,5884.098410689571,1.1047485752677422,1.7618714381693554,0.039999999999999813,,,binary
Y0.326Sm0.674,Y,Sm,0.32639896261996404,0.673601037380036,1650.4403469486276,2566.1787400660896,6849.666764611514,1.1863199481309983,1.833680051869002,0.050000000000000044,,,binary
Co0.337Mo0.663,Co,Mo,0.3369971706121156,0.6630028293878845,2522.991718891992,4347.960311431458,10735.864196775985,2.0656407922286077,1.4163002829387885,0.28000000000000025,,,binary
Os0.342Nb0.658,Os,Nb,0.34181407102434846,0.6581859289756515,2788.3289642040854,5157.710490459061,12751.050508255448,1.8050884426146092,1.3987278893463477,0.6000000000000001,,,binary
Tm0.201La0.799,Tm,La,0.2012663678783853,0.7987336321216147,1261.4904876443054,3330.81033946219,6935.7389422844035,1.1301899551817578,1.9097467264243229,0.1499999999999999,,,binary
V0.543Cr0.457,V,Cr,0.5426871734388866,0.4573128265611134,2077.1829187767953,3763.269492854328,5992.288264115688,1.6437193847968334,1.3728656413280556,0.030000000000000027,,,binary
Er0.610Cu0.390,Er,Cu,0.610295724084742,0.389704275915258,1598.4424899375986,3024.861972940475,10312.70048102863,1.4972048221040701,1.5941182896338968,0.6599999999999999,,,binary
Ba0.798Co0.202,Ba,Co,0.7981757879988277,0.2018242120011723,1177.7030910575886,2599.464629905154,3914.7967259010984,1.0898059698811604,1.9885406303990623,0.9899999999999999,,,binary
Pr0.476Cd0.524,Pr,Cd,0.47551755594440814,0.5244824440555919,909.7460399801316,2438.984142441257,7757.5207394987865,1.4237101686711315,1.6926552667833226,0.56,,,binary
Mg0.247W0.753,Mg,W,0.2474909363120654,0.7525090636879346,3329.5533880082385,4478.640067224566,17018.112729068333,2.1001345168723313,1.3871236404468097,1.0499999999999998,,,binary
Cr0.853Pd0.147,Cr,Pd,0.8528508774144826,0.14714912258551738,2617.4648630277297,2878.5888434279163,7508.429709808116,1.7394605261961793,1.4,0.5400000000000003,,,binary
Sr0.758Ni0.242,Sr,Ni,0.7576925162395444,0.24230748376045563,1390.766694519739,2345.9897712345623,3934.156394832203,1.1826151844100372,1.8425001355557038,0.96,,,binary
Pt0.159Ba0.841,Pt,Ba,0.15926573620451184,0.8407342637954882,1116.8714652551123,2385.204299814076,5461.557938145633,1.1113793733242714,2.0225874110363904,1.3899999999999997,,,binary
Gd0.143Ho0.857,Gd,Ho,0.14288725943402653,0.8571127405659735,1555.3713793431723,2760.586533132039,8001.78877055198,1.2257133822169792,1.7571443629717014,0.030000000000000027,,,binary
Zn0.859Pr0.141,Zn,Pr,0.859300513886425,0.14069948611357497,762.5312227295651,1550.777126432643,8165.799877684575,1.576836267220941,1.4203497430567875,0.52,,,binary
Fe0.195Rh0.805,Fe,Rh,0.19476124976916928,0.8052387502308307,1938.9830816823064,4180.159809842064,11311.42768381164,2.1923574376038735,1.3597380624884585,0.44999999999999973,,,binary
Au0.577Sm0.423,Au,Sm,0.5769014763280202,0.42309852367197975,1333.9441836003355,2864.563530390591,12645.897255098025,1.9603550225693878,1.56154926183599,1.37,,,binary
Eu0.721Ru0.279,Eu,Ru,0.7205548317585738,0.2794451682414262,1578.5450182373202,2575.1467655712127,7591.630825550948,1.4794451682414262,1.6963051574672157,1.0000000000000002,,,binary
Ir0.827Mg0.173,Ir,Mg,0.8268035020990431,0.17319649790095692,2494.583379226961,5135.158440889372,17814.61587031759,2.0458551168681485,1.3759794746851437,0.8900000000000001,,,binary
Hf0.892Nd0.108,Hf,Nd,0.8920250083734383,0.10797499162656166,2249.32212616503,4419.982990946932,11906.788200784624,1.2827240013397503,1.5823924974879686,0.16000000000000014,,,binary
Hf0.597Pr0.403,Hf,Pr,0.5968218568577188,0.4031781431422812,1856.301632585146,4863.448245468832,12129.491190540291,1.231459715665812,1.6709534429426844,0.17000000000000015,,,binary
Eu0.179Lu0.821,Eu,Lu,0.1793868598198306,0.8206131401801694,1675.4147424752207,3060.7552745681455,9441.403776263025,1.2574429198126118,1.767938685981983,0.07000000000000006,,,binary
Tc0.269Gd0.731,Tc,Gd,0.26882015624431443,0.7311798437556856,1712.0817656215818,4036.1040382425613,9048.445693459576,1.38817410937102,1.6790309296900587,0.7,,,binary
Dy0.226Fe0.774,Dy,Fe,0.22564567470470173,0.7743543252952982,1511.4196338436432,3542.3821787889224,9468.270409949551,1.692356138430132,1.4789759861466454,0.6100000000000001,,,binary
Nb0.160Ce0.840,Nb,Ce,0.16005189512093435,0.8399481048790657,1255.2647373263571,3705.071798196411,7189.8791698447,1.1968249096580486,1.7859792419516263,0.48,,,binary
Al0.460Au0.540,Al,Au,0.4604029636941619,0.5395970363058381,1189.900734913932,3169.6850078895336,14000.668711212023,2.1118252437644296,1.3039597036305839,0.9299999999999999,,,binary
Sm0.333Sr0.667,Sm,Sr,0.3330074312248221,0.6669925687751779,1127.9194534445878,1651.8861162632409,3623.0946266439487,1.0232616348694608,1.9500488853162767,0.21999999999999997,,,binary
Ru0.666Cd0.334,Ru,Cd,0.6655646639032267,0.33443533609677334,1792.5039551218229,3280.7011661753654,13122.507781741693,2.0294379785906456,1.3836088340241934,0.5100000000000002,,,binary
Er0.157Ca0.843,Er,Ca,0.1569438081227834,0.8430561918772166,1159.5258308048683,2018.390676799448,2725.106885117057,1.037666513949468,1.792152809593861,0.24,,,binary
Ru0.730Pd0.270,Ru,Pd,0.7302624213173851,0.26973757868261494,2681.732460397121,5139.576761205935,11624.685263526673,2.2,1.3269737578682614,0.0,,,binary
Gd0.629Nd0.371,Gd,Nd,0.6289464342826943,0.37105356571730574,1405.790739044331,3829.388247884553,8003.375178719735,1.1777367860569616,1.8185526782858652,0.06000000000000005,,,binary
Mo0.192Hg0.808,Mo,Hg,0.19182104196883662,0.8081789580311634,882.444916948086,1536.0250919721675,1901.0707742833786,2.030691366715014,1.490408947901558,0.16000000000000014,,,binary
Ru0.219Tb0.781,Ru,Tb,0.2191915208602634,0.7808084791397366,1952.2488060179915,4115.392758478664,9877.87102800197,1.3411106729462898,1.6513638156128816,1.1,,,binary
Ag0.157Zn0.843,Ag,Zn,0.15712786948465132,0.8428721305153487,817.3425508031871,1524.0974319115048,8562.804604201508,1.693995803455702,1.389281967371163,0.28,,,binary
Zr0.576Hf0.424,Zr,Hf,0.5760352298555238,0.4239647701444762,2604.532414383267,5073.310719462118,9236.553493950047,1.3172810568956659,1.55,0.030000000000000027,,,binary
Pr0.451Cd0.549,Pr,Cd,0.45132275893899,0.54867724106101,884.0150617819891,2441.54789957977,7110.300932970704,1.4372592549941654,1.685396827681697,0.56,,,binary
Ca0.343Er0.657,Ca,Er,0.3432729524358134,0.6567270475641867,1623.912043917805,2561.049637314275,6504.604268075695,1.157614491415405,1.767163647621791,0.24,,,binary
Pt0.500Ag0.500,Pt,Ag,0.5003777416943405,0.49962225830565954,1847.9400933130592,3329.5626995524485,15867.345964980168,2.105132209593019,1.474905564576415,0.34999999999999987,,,binary
Ba0.164Mg0.836,Ba,Mg,0.1643534815194408,0.8356465184805593,808.419568662806,1602.4767276251582,2160.2182377704735,1.240971537761835,1.6068297629876365,0.42000000000000004,,,binary
V0.688Hg0.312,V,Hg,0.6876271386284922,0.31237286137150777,1914.8432533332018,2643.2872295252905,4293.47567550487,1.7455779587074578,1.396855929205726,0.3700000000000001,,,binary
Sm0.121Pd0.879,Sm,Pd,0.12069191391066836,0.8793080860893316,1813.8844426989135,3584.3765019641246,11350.166097337504,2.0756873286720117,1.4543113612598007,1.0300000000000002,,,binary
Ru0.769Ho0.231,Ru,Ho,0.7687668911249451,0.23123310887505488,2472.241897724267,4341.108371182601,11758.750921866244,1.975703884391197,1.404054898993775,0.9700000000000002,,,binary
Pr0.861Nd0.139,Pr,Nd,0.860629022245082,0.13937097775491802,1165.9210793671568,3605.159818966661,7377.584968055302,1.131393709777549,1.85,0.010000000000000009,,,binary
Ho0.561Ag0.439,Ho,Ag,0.5609975876821974,0.43900241231780257,1359.3995380323825,2784.5772077682964,8871.256205968733,1.5373016886224617,1.6841496381523298,0.7,,,binary
Nb0.515Sr0.485,Nb,Sr,0.5151710727900832,0.48482892720991677,2155.931806936005,2871.1009581283047,5372.083148147823,1.2848611973135542,1.7166559099654544,0.6500000000000001,,,binary
Mg0.245Ag0.755,Mg,Ag,0.24519131777850076,0.7548086822214992,1202.1454865622945,2512.21097760768,8289.2230062278,1.7779813829773294,1.57548086822215,0.6199999999999999,,,binary
Nd0.608Hg0.392,Nd,Hg,0.6078277755632695,0.3921722244367305,831.3751809301019,2729.3685437412196,3534.731587539437,1.477268113015588,1.7127397214471445,0.8600000000000001,,,binary
Ba0.476Fe0.524,Ba,Fe,0.4760083159682814,0.5239916840317186,1111.636805562574,2779.419739268622,5505.6739514879755,1.3825521829898155,1.757006236976211,0.9400000000000001,,,binary
Au0.357W0.643,Au,W,0.3568466047652573,0.6431533952347427,2562.2469661247465,5209.477288524717,19737.59370153256,2.4242323888577464,1.35,0.18000000000000016,,,binary
Co0.364Zr0.636,Co,Zr,0.3638429308631723,0.6361570691368277,1884.3691090692855,3612.382219255823,8024.11353063069,1.5301136119747447,1.4772314138273657,0.5499999999999998,,,binary
Er0.331Ba0.669,Er,Ba,0.3305742362891646,0.6694257637108354,1347.3788238783836,2448.387758663031,6334.006403946967,1.0057009827012076,2.0177703054843343,0.35,,,binary
Pt0.129Ce0.871,Pt,Ce,0.12935770425096696,0.8706422957490331,1066.1575724668805,3129.7518007039553,7960.168799770184,1.2700549369311218,1.7853211478745168,1.1599999999999997,,,binary
Fe0.302Ta0.698,Fe,Ta,0.30191908075376617,0.6980809192462338,2830.4994705020913,5067.294132394994,13662.619026501687,1.5996332966487428,1.4349040459623117,0.33000000000000007,,,binary
Ni0.792Pt0.208,Ni,Pt,0.7919284672415032,0.20807153275849677,1856.3405306892405,2953.271410290206,13094.787893223689,1.9869864671206439,1.35,0.3699999999999999,,,binary
Al0.795Dy0.205,Al,Dy,0.7954939874565219,0.2045060125434781,1077.2171064930026,3114.8620546151697,4030.1098273346615,1.5302426551080437,1.352253006271739,0.3900000000000001,,,binary
Ca0.143Au0.857,Ca,Au,0.1433632683013829,0.8566367316986171,1365.0831696401422,3099.3787743085227,17505.45120020508,2.3192205668158703,1.4145134707356224,1.54,,,binary
Y0.598Os0.402,Y,Os,0.5981070980813691,0.4018929019186309,2559.2050989559607,4851.791711481254,11992.67248620609,1.6138550438802584,1.5990535490406845,0.9800000000000002,,,binary
Ba0.454Gd0.546,Ba,Gd,0.4536327645778092,0.5463672354221908,1413.1867292226814,2870.990472834387,6760.077982929259,1.0593738429808792,1.9587714676022332,0.30999999999999994,,,binary
Cr0.314Tc0.686,Cr,Tc,0.31364499061834594,0.6863550093816541,2192.5290993758535,4765.278615746874,10091.817765926166,1.824725202251597,1.3656822495309173,0.24,,,binary
Cu0.450Cd0.550,Cu,Cd,0.45049287605790267,0.5495071239420973,803.9593974326033,2038.8528587185094,8174.239551982025,1.7846035039721595,1.4599014247884194,0.20999999999999996,,,binary
Er0.197Ba0.803,Er,Ba,0.1971408666900959,0.8028591333099041,1255.4624908499004,2187.0491122733524,4399.833144935217,0.9589993033415336,2.0711436533239613,0.35,,,binary
Gd0.739Sm0.261,Gd,Sm,0.7394509866195765,0.26054901338042347,1234.791662290391,3003.6906619352912,5877.7204420154185,1.1921835295985872,1.8130274506690212,0.030000000000000027,,,binary
Tm0.349Zr0.651,Tm,Zr,0.3486001107146681,0.6513998892853319,1699.9960545291713,4115.635142025768,8079.175130673559,1.3021119911428265,1.6197200221429338,0.08000000000000007,,,binary
Al0.426Ce0.574,Al,Ce,0.426392549831922,0.573607450168078,1053.6357431133733,2957.776823491662,4964.321121174139,1.328932349417642,1.5941644701008468,0.49,,,binary
Ru0.469Ni0.531,Ru,Ni,0.46915831534302677,0.5308416846569732,2139.6190752647667,3330.068286189752,12115.639169127784,2.0460559114494776,1.3265420842328486,0.29000000000000026,,,binary
Ni0.766Tb0.234,Ni,Tb,0.765714539015121,0.234285460984879,1854.3789662098602,3188.228237771615,8770.093224332251,1.720228776602248,1.4437141843939516,0.8099999999999998,,,binary
Ba0.333Tm0.667,Ba,Tm,0.3334892482094288,0.6665107517905712,1577.4052272058445,1747.890371903036,7200.600594200257,1.1299438706446057,1.8833956992837715,0.36,,,binary
Tm0.432Ag0.568,Tm,Ag,0.4323922743482824,0.5676077256517176,1385.6308392936367,2108.6199318159097,9703.867904100423,1.6359732534431681,1.6648588411522423,0.6799999999999999,,,binary
Sr0.465Rh0.535,Sr,Rh,0.46542917818585083,0.5345708218141492,1987.3622545020266,3076.759608909603,7429.425815126386,1.6609791930128182,1.652528965820803,1.3299999999999998,,,binary
Zn0.252Ir0.748,Zn,Ir,0.25248829675834267,0.7475117032416574,2349.5748318173255,4345.4214192643,20466.10661511955,2.0611314367829117,1.35,0.5500000000000003,,,binary
Sm0.697Sc0.303,Sm,Sc,0.6970340363939181,0.30296596360608186,1495.958615794971,2232.7127876213162,6450.64851917626,1.2275635330851555,1.7742585090984797,0.19000000000000017,,,binary
Cu0.321Mn0.679,Cu,Mn,0.3209979222576328,0.6790020777423672,1524.9794712985072,2845.8072554015016,8439.484203279399,1.6623492727901714,1.3839501038871183,0.34999999999999987,,,binary
Au0.847W0.153,Au,W,0.8473987149460162,0.15260128505398385,1875.2344769794893,3351.3509915271334,21833.93530228486,2.512531768690283,1.35,0.18000000000000016,,,binary
Sc0.756Ag0.244,Sc,Ag,0.7564395785484627,0.24356042145153733,1706.0191191996012,3550.4909328737263,4481.220313281465,1.4988294402273763,1.6,0.5699999999999998,,,binary