formula,element_1,element_2,composition_1,composition_2,melting_point,boiling_point,density,electronegativity,atomic_radius,electronegativity_difference,element_3,composition_3,alloy_type
W0.166Mg0.426La0.408,W,Mg,0.1658860661341148,0.4262363230384012,1520.5785551236706,3213.626770167111,7540.598992092274,1.398526071167049,1.6586620149522506,0.0,La,0.40787761082748397,ternary
Nd0.461La0.509Ho0.050,Nd,La,0.46061141179725473,0.5088481415160134,1191.643112460619,3146.6926491663826,6099.415273738796,1.146329965116485,1.9318849877811473,0.0,Ho,0.05,ternary
Hf0.473Er0.513Tm0.050,Hf,Er,0.4726511319750146,0.5129702390304351,1905.7263084382935,4565.3132290944595,13174.254349274543,1.3130295679652586,1.717807172864534,0.0,Tm,0.05,ternary
Hg0.478Zn0.512Tb0.050,Hg,Zn,0.4783602177131705,0.5117368379227509,565.5574034299958,1212.246595157389,4119.201769215633,1.85608621799888,1.4958850577654694,0.0,Tb,0.05,ternary
Ta0.366Mn0.460Ce0.174,Ta,Mn,0.3664807734958886,0.4597202528953078,2069.779068184685,3677.989229554144,10366.482946397884,1.4569424026734201,1.496533576798756,0.0,Ce,0.1737989736088036,ternary
Nb0.464Ta0.483Zn0.054,Nb,Ta,0.4635397666300958,0.4827175062845924,2451.2233098371476,5291.6846633803825,12343.517497840869,1.5544153857258063,1.4446257272914687,0.0,Zn,0.0537427270853118,ternary
Au0.457Hf0.502Mg0.050,Au,Hf,0.456628616996747,0.5016205616701462,2056.5269475225477,3979.7176457548658,15322.968157876536,1.8774434173429277,1.4689605035343352,0.0,Mg,0.05,ternary
Gd0.176Lu0.194Ag0.630,Gd,Lu,0.17597852788533228,0.19396680111725415,1305.7712882123103,2887.6696854645793,10639.990024441919,1.6735175859063194,1.6642907257446544,0.0,Ag,0.6300546709974135,ternary
Cu0.481Nb0.406Ti0.113,Cu,Nb,0.48122374186648276,0.40599079883451206,1761.397183212213,4013.0876256978936,8473.144770197745,1.7375999950020045,1.3962383528484015,0.0,Ti,0.11278545929900519,ternary
Ag0.406Sm0.398Pr0.196,Ag,Sm,0.40618101071905843,0.39818034631081867,1182.0443901035314,2365.021013371194,8683.435036261739,1.4708720224276794,1.7484547473202354,0.0,Pr,0.1956386429701229,ternary
Ru0.280Ho0.444Ti0.276,Ru,Ho,0.2796306672672757,0.44407064236635807,1804.6249293150124,3673.739796511399,7839.018717446697,1.586894341262831,1.5274616581014977,0.0,Ti,0.27629869036636623,ternary
Sr0.523Cu0.334Sc0.143,Sr,Cu,0.5230691179808667,0.3343817491532084,1395.9332352955748,2933.973619521051,4372.09161212382,1.3261078061705769,1.7256322099040444,0.0,Sc,0.14254913286592485,ternary
Tb0.526Os0.346Nb0.128,Tb,Os,0.5260647162327926,0.34572279853316734,2478.1759065535934,3999.7340122591413,14617.449770369352,1.5444013210035044,1.5559609950898627,0.0,Nb,0.12821248523404005,ternary
Cu0.213Zr0.304Mo0.483,Cu,Zr,0.21313653004254976,0.30429458008907306,2039.0806657350838,4692.287086426005,8071.242249155379,1.8520200007150065,1.4591158050046524,0.0,Mo,0.4825688898683772,ternary
Al0.211Ag0.436Au0.353,Al,Ag,0.21127710618960358,0.4356695435503253,1182.3999322538705,2471.351613012285,12937.634452481314,2.07775386967797,1.437789675268621,0.0,Au,0.3530533502600711,ternary
Mo0.189Tc0.577Mn0.234,Mo,Tc,0.1885391009118527,0.5773495345772343,2111.694634061572,4318.425325510546,9971.180204563092,1.8670811886582623,1.380559478316731,0.0,Mn,0.23411136451091308,ternary
Mg0.432Eu0.525Ba0.050,Mg,Eu,0.43152222433382453,0.5251456090387506,1013.6916965442815,1664.8173807119092,3399.047300094081,1.2399688447238109,1.7263027132224256,0.0,Ba,0.05,ternary
Rh0.488Hg0.404Pt0.108,Rh,Hg,0.4881073595651473,0.4039649789606473,1436.472825774194,3036.567823644201,7703.178238878651,2.1668898058910186,1.4105947468440971,0.0,Pt,0.1079276614742054,ternary
Ir0.297Yb0.570Ta0.133,Ir,Yb,0.29707535435074894,0.5695695666315699,2097.2229426019408,3446.5626901670703,11655.393017936329,1.4801249213928964,1.591163334554396,0.0,Ta,0.13335507901768118,ternary
Pr0.363Sm0.538La0.099,Pr,Sm,0.36261526585144477,0.5378914859299084,1093.9228283917869,2865.041408370612,6592.584870538557,1.148530861990637,1.8599493248218646,0.0,La,0.0994932482186468,ternary
V0.326Y0.514Co0.161,V,Y,0.325804796281831,0.5135050508296749,2277.7364569556785,3578.8236635965736,5258.570466538553,1.4596354673819567,1.581077272873354,0.0,Co,0.1606901528884941,ternary
V0.365Rh0.588Y0.050,V,Rh,0.36476857153446224,0.587779892237447,1948.6017393764741,4275.2791925043075,9212.137713654782,1.9957109259025523,1.3759404260920776,0.0,Y,0.05,ternary
V0.358Ce0.415Ir0.227,V,Ce,0.35806334154739927,0.41532427654636017,1854.0003175436752,4263.835187954223,9609.606401337247,1.5473536766479135,1.5576621382731801,0.0,Ir,0.22661238190624056,ternary
Cr0.320Mo0.542Cd0.138,Cr,Mo,0.3197769373582299,0.5421987880190988,2338.5479628356206,3742.0387433918618,9669.392455855692,1.9352401222482296,1.4478135805943557,0.0,Cd,0.1380242746226713,ternary
Cd0.311Ca0.407Zr0.282,Cd,Ca,0.31123109122522075,0.40656713962194624,1311.9681322168533,2307.3563252789677,5192.585009028755,1.3078760367658373,1.6516417849054865,0.0,Zr,0.282201769152833,ternary
Cr0.552Er0.332Y0.116,Cr,Er,0.5518378233247981,0.3317894765358176,1935.5088676840214,2630.648307727721,7660.934505951146,1.4694444317936275,1.5626753968432898,0.0,Y,0.11637270013938428,ternary
Tb0.461Mg0.157Fe0.382,Tb,Mg,0.46132339574641656,0.15658579312179752,1888.4692983223247,2759.420630556645,6525.6327762741075,1.4118093086817813,1.5771217678234255,0.0,Fe,0.3820908111317859,ternary
Nd0.168Er0.307La0.526,Nd,Er,0.1676533370951813,0.30677965254880835,1275.60103276831,3749.624989866475,7472.173633331351,1.1496552848406405,1.87187873578072,0.0,La,0.5255670103560104,ternary
Mg0.327Ti0.548Nb0.125,Mg,Ti,0.3268403678771684,0.5483087536418229,1682.1823217704075,2746.245217037159,4147.208056544706,1.4723177680971118,1.438926580711767,0.0,Nb,0.12485087848100873,ternary
Mo0.225Ca0.446Fe0.329,Mo,Ca,0.22504114703861913,0.44585871416545075,1471.8485778760917,2962.0587876998475,6083.5294619784245,1.5342008457654202,1.5895955430181112,0.0,Fe,0.32910013879593014,ternary
Tm0.162Zr0.157Yb0.681,Tm,Zr,0.16177210841771675,0.15708246941203888,1203.47604961421,1774.5150251622103,8112.284622889641,1.1603947842274267,1.7185835061175923,0.0,Yb,0.6811454221702444,ternary
Mg0.143Gd0.454Os0.404,Mg,Gd,0.14265327201715597,0.4536395593884862,2051.65307155205,4372.196916229944,12760.376321244006,1.6193990285162452,1.5553504340976745,0.0,Os,0.40370716859435785,ternary
Yb0.575Sc0.289Eu0.136,Yb,Sc,0.5748769445713597,0.2893393157062899,1283.5971607195636,2073.8254006025263,4879.493958880952,1.1888065960558702,1.7201774766162916,0.0,Eu,0.13578373972235036,ternary
Ir0.556V0.383Zr0.061,Ir,V,0.5561263894110662,0.3827457892570846,2521.8207176108554,4144.669228924369,13308.150906888068,1.928653695564753,1.3622255642663699,0.0,Zr,0.06112782133184924,ternary
Dy0.534Zn0.189Zr0.276,Dy,Zn,0.5344092687391019,0.18943338233663434,1671.247417791404,2954.3289768869745,7599.119865753147,1.3318336627864218,1.6189951772804936,0.0,Zr,0.2761573489242638,ternary
Tm0.254Cr0.465Au0.281,Tm,Cr,0.25403110276728236,0.465080873551333,1627.30230929108,3260.438205457206,12083.638120271506,1.8030287087050327,1.4748664847844797,0.0,Au,0.28088802368138466,ternary
Mg0.190Cd0.549Gd0.260,Mg,Cd,0.19034801318330305,0.5492709567083829,1002.9822719092716,1694.6165122185569,5904.775478686054,1.490081050237271,1.6055778568679133,0.0,Gd,0.26038103010831404,ternary
Mo0.483Al0.106Eu0.411,Mo,Al,0.48269790356275055,0.10610388241202626,2329.438037227585,3386.5924955993764,6850.456731724132,1.7068925792091714,1.593258509127684,0.0,Eu,0.41119821402522316,ternary
Ba0.404La0.347Al0.249,Ba,La,0.40399196551256966,0.346733398131573,1094.1134451386588,3193.297013261112,4212.344660260457,1.1422917517838478,1.856306147653414,0.0,Al,0.24927463635585734,ternary
Tc0.338Nd0.305Dy0.357,Tc,Nd,0.3378559949015769,0.3050756828556782,2048.8073272923125,3963.596442139262,8042.991318997072,1.4253360219046178,1.6453651703249372,0.0,Dy,0.3570683222427449,ternary
Fe0.222Sm0.374Al0.404,Fe,Sm,0.22235658571931669,0.3736708047915732,1195.9664101775713,2849.504970957594,4073.0397895335286,1.4945032947499575,1.5075559707328416,0.0,Al,0.40397260948911007,ternary
Eu0.510Gd0.204Ce0.286,Eu,Gd,0.5100606956528593,0.20381880048259646,1171.4131366112729,2292.799946509126,5903.575423559965,1.1771103596908365,1.8398090599758703,0.0,Ce,0.28612050386454424,ternary
Nb0.427Zn0.118Cr0.455,Nb,Zn,0.4266384391077601,0.11836052591120602,2179.994757884311,3489.96218082359,7322.0853632786075,1.6332180883944223,1.4154138956598277,0.0,Cr,0.45500103498103384,ternary
V0.519Dy0.249Pr0.232,V,Dy,0.519007217896303,0.24922077332105888,1630.7043632701102,4232.765401839169,8118.752764425393,1.4119334785470465,1.5655743137197426,0.0,Pr,0.23177200878263812,ternary
Fe0.308Cr0.189Co0.502,Fe,Cr,0.30847846192767914,0.1891241958787114,1643.1343544838344,3626.620920873113,7921.057817485888,1.8229687538102994,1.3748801328903193,0.0,Co,0.5023973421936094,ternary
Ho0.430Cd0.450Eu0.120,Ho,Cd,0.43046230558869847,0.44992340801272157,1160.0261790008794,1959.1246481864735,7757.088817406985,1.4333763390938945,1.6719767470373137,0.0,Eu,0.11961428639857996,ternary
Pr0.524Ce0.452Nb0.050,Pr,Ce,0.5237114287057066,0.45166626062564635,1375.7527383890629,3805.042197053617,6597.025684987194,1.1776601263381725,1.876948725263003,0.0,Nb,0.05,ternary
Os0.484V0.261Fe0.254,Os,V,0.484255991500968,0.2614109254202598,2288.812550376666,3932.478059588223,12160.845249821263,1.9568925317713062,1.33850385457889,0.0,Fe,0.2543330830787722,ternary
Ir0.522Mn0.132Hg0.346,Ir,Mn,0.5216548150422837,0.13246293326032424,1713.1623989948416,2622.805665098394,12464.929975709456,2.044722643041311,1.408505484417625,0.0,Hg,0.34588225169739206,ternary
Sr0.447Cu0.237Ni0.315,Sr,Cu,0.4473097192474005,0.2372092713758667,1520.0712156263407,2804.8530983434457,6082.938679926623,1.478210576808737,1.6407513175108104,0.0,Ni,0.31548100937673285,ternary
Y0.448Au0.406Tc0.146,Y,Au,0.44791474867258585,0.406026872464212,1688.8756779795533,4217.112325807128,12118.927098567712,1.8552751692797371,1.5515616369026637,0.0,Tc,0.14605837886320217,ternary
Co0.587Pr0.364Yb0.050,Co,Pr,0.587111283815702,0.3638663841994695,1482.1798426315697,2785.3969432657086,8283.774784407227,1.5699382277189202,1.5532530439202161,0.0,Yb,0.05,ternary
Fe0.417Sr0.547Yb0.050,Fe,Sr,0.41740538110971476,0.547160947637212,1500.1755447287435,2142.68166487346,5201.3624722637605,1.3386547476861292,1.7661894288280244,0.0,Yb,0.05,ternary
Tm0.404Cd0.258Hg0.337,Tm,Cd,0.4044223034672363,0.2582442792492361,932.5532737940348,1354.6863795106362,4509.885926116037,1.6166275458323096,1.614017789829271,0.0,Hg,0.3373334172835276,ternary
Y0.277Pr0.165Eu0.558,Y,Pr,0.276926672187095,0.1648565687771513,1281.7465301119223,2842.8244696280194,4928.212385551011,1.1939985736293413,1.8361536663906453,0.0,Eu,0.5582167590357537,ternary
Pr0.465Ba0.349Y0.187,Pr,Ba,0.46459237199968695,0.34887055714616344,1252.2214288680395,2843.6401283759883,5329.020388459835,1.063059402661794,1.9453343136011416,0.0,Y,0.1865370708541496,ternary
Nb0.413Eu0.558Ru0.050,Nb,Eu,0.41342045360804536,0.5584445326556168,1840.2590614069895,2990.4857285502576,8034.774929744015,1.4416061649596128,1.6975820431445567,0.0,Ru,0.05,ternary
Al0.332Ni0.498Ti0.169,Al,Ni,0.3324428171867905,0.4983662766140913,1639.2325580385489,2929.6671595025855,6403.2160637084435,1.747666519550289,1.3252152635912768,0.0,Ti,0.16919090619911825,ternary
Lu0.599Tc0.307Eu0.093,Lu,Tc,0.5994935036250654,0.30702056976218595,2110.4602862074307,4006.4780278697563,8239.79011750322,1.4568789440872847,1.6365403647564005,0.0,Eu,0.09348592661274868,ternary
W0.503Re0.206Ce0.291,W,Re,0.5030217589344961,0.20616896678245536,3172.531237892846,4901.98983894479,15390.896547459717,1.9045587751690902,1.4954046371415244,0.0,Ce,0.2908092742830486,ternary
Gd0.241Mo0.495Er0.264,Gd,Mo,0.24081335162526932,0.49509775142310586,2895.8195084969134,4233.873006294594,9023.879480908194,1.6858573972442468,1.6135113421543317,0.0,Er,0.26408889695162485,ternary
Hf0.262Sc0.103Ce0.635,Hf,Sc,0.26196191969153504,0.10306563121764642,1186.0332115838148,4446.556949214934,6959.91821451566,1.1918888970367116,1.7456450162881278,0.0,Ce,0.6349724490908185,ternary
Ho0.462W0.408Pt0.130,Ho,W,0.4621983214055059,0.40799667149824215,2315.7000106929145,4150.852072142483,16732.52988685387,1.827331496244078,1.5348793285622024,0.0,Pt,0.12980500709625198,ternary
Ti0.265Nb0.269Mo0.466,Ti,Nb,0.265257416046505,0.26896842763677153,2804.7158313845234,4509.298609317679,8544.267983772466,1.844918082574575,1.4367371291976747,0.0,Mo,0.4657741563167235,ternary
Ho0.423Sr0.341V0.236,Ho,Sr,0.42282611033228745,0.3407477615601804,1510.5968467774235,2737.2038178241028,6103.924193077024,1.2291610780061624,1.7406164891470322,0.0,V,0.23642612810753216,ternary
Gd0.548Ca0.331La0.121,Gd,Ca,0.5479643007185669,0.33123503768439977,1515.846347023447,3251.346152619729,5861.2233448585885,1.1216729263034166,1.8181200992395552,0.0,La,0.12080066159703329,ternary
Au0.518Lu0.250Cr0.233,Au,Lu,0.5175528679828093,0.24967187331968035,1619.325492391559,3461.2916592135416,13978.05927101684,2.0180744932301966,1.4615075122627477,0.0,Cr,0.23277525869751034,ternary
Yb0.378Ho0.109Ta0.513,Yb,Ho,0.377588604151776,0.10935921523072742,2043.8337127605573,3668.1434742727056,12086.19489676369,1.3194375702269932,1.596084345814751,0.0,Ta,0.5130521806174966,ternary
Pr0.455Ho0.517W0.050,Pr,Ho,0.45486423484678506,0.5173940124348251,1779.8786523344309,3397.1290261974036,7501.435878882443,1.268391220671702,1.8144383562274964,0.0,W,0.05,ternary
Re0.240Mn0.116Zn0.644,Re,Mn,0.24023001432694177,0.11558658234459315,1460.9877153447276,2467.506746639669,10707.898650609564,1.698498845347276,1.3557793291172295,0.0,Zn,0.644183403328465,ternary
Ir0.521Gd0.385La0.093,Ir,Gd,0.5212028874679263,0.3854908205780725,2347.6545130526697,4581.122169600285,14507.930136050869,1.7118722582725263,1.5794546444325335,0.0,La,0.0933062919540012,ternary
Ir0.158Nb0.491Sm0.350,Ir,Nb,0.15842231908661755,0.4911719685477771,2116.9392259368333,3526.9320105147854,11099.103835318152,1.5443789351347603,1.5743200530375805,0.0,Sm,0.35040571236560536,ternary
Hf0.455Tm0.236Ta0.309,Hf,Tm,0.45492000740628025,0.23574870829980657,2961.031947021673,4372.776271062527,13079.181182455326,1.3500788214437924,1.5662166132305702,0.0,Ta,0.3093312842939132,ternary
Fe0.286Ba0.515Rh0.199,Fe,Ba,0.285791788443574,0.51472873445871,1695.4019322148201,2931.333984400222,6825.863680138766,1.4359207543027845,1.7760725769891468,0.0,Rh,0.19947947709771596,ternary
Hf0.251Tc0.156Y0.593,Hf,Tc,0.2511591493152556,0.156115636133461,1827.9539630723912,4348.645110788286,7065.2279018428335,1.346251364515974,1.6669581764111288,0.0,Y,0.5927252145512834,ternary
V0.322Mo0.112Fe0.566,V,Mo,0.32188704649357014,0.11246738731497999,1819.9809372792452,3388.0103203613494,7132.9450687748695,1.8027368285152292,1.3895290170410703,0.0,Fe,0.5656455661914499,ternary
Sr0.195Sc0.562Zn0.243,Sr,Sc,0.19510583929760714,0.5618183839450476,1361.518456597463,2013.9815505389781,4302.12145369048,1.3504985811476111,1.6172733915297066,0.0,Zn,0.24307577675734526,ternary
Yb0.488Y0.172Hf0.341,Yb,Y,0.48776660459987053,0.17164752397493047,1888.7935026292873,2413.141302271206,9337.652927436126,1.1887148771620315,1.6904652019137067,0.0,Hf,0.340585871425199,ternary
Co0.596Y0.203Ho0.201,Co,Y,0.596360172080685,0.20259355502043155,1624.1883635416193,3519.010883150546,7927.173217954079,1.6156081763022407,1.5215856089187476,0.0,Ho,0.2010462728988834,ternary
V0.457Ca0.361Ir0.182,V,Ca,0.4568386952013157,0.36117243660925324,1903.9165558761172,3112.5764647766396,8378.99185292367,1.5061950198041463,1.512527596474164,0.0,Ir,0.18198886818943105,ternary
Al0.444Hf0.397V0.159,Al,Hf,0.4435261653666348,0.3971437903936025,1539.2728881415126,3989.749558242777,8278.274189726646,1.4900720258627786,1.385076141542057,0.0,V,0.1593300442397627,ternary
Fe0.545W0.152Ca0.304,Fe,W,0.5445929379989943,0.15155141473031677,2020.072257746455,3850.076070992482,7270.421608249011,1.6581220625723962,1.5139646881717597,0.0,Ca,0.3038556472706889,ternary
Dy0.111Lu0.479Hf0.410,Dy,Lu,0.11124013057932194,0.4792469103341658,2340.1222223572345,4030.718871257731,12489.413981062044,1.2767233822436292,1.6680974081826978,0.0,Hf,0.4095129590865123,ternary
Gd0.200Tc0.243Ta0.556,Gd,Tc,0.20027775612676754,0.24328368856254792,2737.196205155513,4804.667653233236,15426.976011084746,1.5372301485869888,1.4957688457881138,0.0,Ta,0.5564385553106845,ternary
La0.436Ta0.236Mg0.328,La,Ta,0.4355620209785209,0.23632710333660514,1521.338678929523,2947.0790101619846,6810.8642511292965,1.2634341252284655,1.6841865542735042,0.0,Mg,0.32811087568487396,ternary
Zr0.108Ag0.411Ni0.481,Zr,Ag,0.10762835874519514,0.4114724813387758,1665.2412866793618,3460.8970337294672,9404.325324681171,1.8558050015545622,1.474393792083733,0.0,Ni,0.48089915991602905,ternary
Sc0.371Co0.375Tc0.254,Sc,Co,0.37126435693471926,0.37468282848032153,2210.739432151202,3028.0177512170894,7038.066884712392,1.6920235906856451,1.4428160892336799,0.0,Tc,0.2540528145849592,ternary
Ag0.502Zn0.387Tm0.111,Ag,Zn,0.5020014192285676,0.38704147132048405,1058.304977756265,1903.6788785728122,9139.922859392487,1.7461775536036195,1.5198831985875214,0.0,Tm,0.11095710945094839,ternary
Zr0.407Mn0.269Hf0.324,Zr,Mn,0.4066314417579886,0.26936944626486714,2230.579107378024,3929.455054936675,9096.934513927179,1.3795413048189564,1.5095945830602702,0.0,Hf,0.32399911197714426,ternary
Mg0.114Cr0.552Cu0.334,Mg,Cr,0.11449634310132104,0.5516462038289605,1753.6217679134957,2584.7137919438073,7034.874566941908,1.70005206865127,1.3947567616566463,0.0,Cu,0.3338574530697185,ternary
Cr0.127Co0.313Ir0.560,Cr,Co,0.12689993786111317,0.31323287260501365,2329.953940691883,3941.7120525455766,16426.835535586848,2.0312395143213946,1.3563449968930557,0.0,Ir,0.5598671895338732,ternary
Nb0.540Tm0.413Sm0.050,Nb,Tm,0.5397443412110493,0.4127888559656808,2319.4171054169883,3568.109978902419,9966.053709190206,1.43807701589478,1.597509792695963,0.0,Sm,0.05,ternary
Er0.278Mg0.266Eu0.456,Er,Mg,0.27781215650007374,0.2661660478168799,1101.5690744353087,1907.9833914015353,6866.188686957516,1.2403907515198598,1.7290606676140847,0.0,Eu,0.45602179568304635,ternary
Mo0.505Tm0.139Dy0.356,Mo,Tm,0.5046499115731006,0.13927280371517645,2072.7996239593726,3285.3166868200874,10230.793365219453,1.6985491009901699,1.5986050265280696,0.0,Dy,0.35607728471172295,ternary
Ca0.146Pr0.501Cu0.352,Ca,Pr,0.14645808716435363,0.5011752490687706,988.1046540781962,3095.9919415803133,8135.181627021269,1.3822827797691284,1.6664937637583446,0.0,Cu,0.35236666376687575,ternary
Er0.328Ca0.442Co0.230,Er,Ca,0.3277920853733707,0.4422389874026872,1260.1113583091992,2038.5930729817128,4848.830428324559,1.281042756446678,1.6801243784805575,0.0,Co,0.22996892722394213,ternary
Tm0.216Ca0.212Sr0.572,Tm,Ca,0.21584710682723027,0.21189722695843008,1340.0011503243443,2001.5861517654444,3648.273911501344,1.0253489933960904,1.9036587779015064,0.0,Sr,0.5722556662143397,ternary
Eu0.296Pd0.450Os0.254,Eu,Pd,0.29603845917937555,0.44980731054121414,2123.662811442917,3794.835316545712,14978.04685591904,1.9039615408206245,1.507801883602778,0.0,Os,0.2541542302794103,ternary
Dy0.327W0.115Ta0.558,Dy,W,0.326641533849786,0.11513206610592155,2741.497282414384,3693.636187119656,13129.69875540516,1.5075539473731525,1.5364792535443437,0.0,Ta,0.5582264000442925,ternary
Sr0.339Ni0.523Re0.138,Sr,Ni,0.3393260429100755,0.5228831312462745,1662.3403258425549,2957.56601502817,8287.955632642712,1.582869090547891,1.570561927891549,0.0,Re,0.13779082584365,ternary
Cd0.387Re0.354Sm0.259,Cd,Re,0.3873391290284469,0.35397483297784704,2004.1766657761582,3401.881999012499,12475.244898967276,1.6298179751686208,1.5568108448025426,0.0,Sm,0.25868603799370604,ternary
Pt0.263Tm0.425Co0.312,Pt,Tm,0.26293486414905587,0.4247257063944786,2065.5641885137948,3129.2136603949343,12363.22456000538,1.7175967506311007,1.5198902825577916,0.0,Co,0.31233942945646553,ternary
Hf0.300La0.307Ca0.393,Hf,La,0.3004082373922168,0.30672095283335177,1697.9221700657056,3326.986831292992,7828.522296209541,1.1207945665010004,1.7709060835769486,0.0,Ca,0.39287080977443145,ternary