formula,element_1,element_2,composition_1,composition_2,melting_point,boiling_point,density,electronegativity,atomic_radius,electronegativity_difference,element_3,composition_3,alloy_type
Au0.661Hg0.339,Au,Hg,0.6614485108988131,0.33855148910118693,1012.6745603827516,2116.6605430011564,15529.85736662891,2.3571821958853594,1.400782723365178,0.54,,,binary
Fe0.529Gd0.471,Fe,Gd,0.5292518528560123,0.4707481471439877,1907.553132066974,3387.6344079670334,8696.664503788465,1.5334286672992878,1.588299258857595,0.6300000000000001,,,binary
Eu0.322Zn0.678,Eu,Zn,0.32197418858764804,0.678025811412352,914.5759556925746,1301.8204481713062,5996.584873635151,1.5051116151355581,1.510987094293824,0.44999999999999996,,,binary
Hf0.509Fe0.491,Hf,Fe,0.5090437586362652,0.49095624136373484,2181.701708530744,4367.19693656238,10789.138293151582,1.5602068079227795,1.4763565637954397,0.53,,,binary
Tc0.529Zn0.471,Tc,Zn,0.5291121383115667,0.47088786168843333,1357.7183404823697,2719.382755731205,9377.04728457746,1.7822780345778915,1.35,0.25,,,binary
Pt0.607Nd0.393,Pt,Nd,0.6074353978826054,0.39256460211739463,1735.9396725187476,4565.598055490986,13334.707596778533,1.8324763535861701,1.5462823010586975,1.14,,,binary
Tb0.615Ho0.385,Tb,Ho,0.6145236555702394,0.38547634442976064,1753.881876933811,3798.76847443874,10358.372912473214,1.1501119247758689,1.75,0.1299999999999999,,,binary
Hf0.450Er0.550,Hf,Er,0.44998883444046,0.55001116555954,2033.1087313006408,4114.456021365528,11601.107486316812,1.2669993300664277,1.660002233111908,0.06000000000000005,,,binary
Rh0.296Cr0.704,Rh,Cr,0.29558380297549236,0.7044161970245076,2239.7926472798817,3214.585962056062,9089.264938891565,1.8432619578448053,1.3852208098512253,0.6199999999999999,,,binary
Hg0.463Ni0.537,Hg,Ni,0.4626974738377142,0.5373025261622858,774.3150022033135,2139.9280138493077,4846.683318300008,1.9516427726453942,1.4194046210756572,0.09000000000000008,,,binary
Sm0.347Cr0.653,Sm,Cr,0.34743205109882097,0.6525679489011791,1847.8488347952461,3183.2977779773896,6727.105421433844,1.4897582949615777,1.5563444229944694,0.49,,,binary
Lu0.693Dy0.307,Lu,Dy,0.6925265441873425,0.3074734558126575,1775.1132870300473,4099.024296638627,8658.5306545646,1.2546263272093672,1.75,0.050000000000000044,,,binary
Ni0.666Al0.334,Ni,Al,0.6663204856944787,0.33367951430552134,1382.4062621175538,3009.620910710666,7411.287181506127,1.8098961457083433,1.3166320485694478,0.2999999999999998,,,binary
Er0.231Al0.769,Er,Al,0.23106610474832606,0.768933895251674,1157.7259283279343,2501.317075187351,3949.001080732297,1.5245055412431197,1.3655330523741631,0.3700000000000001,,,binary
Re0.514Y0.486,Re,Y,0.5137782739578908,0.4862217260421092,2490.8093171807323,4733.303387979726,13526.492562696121,1.5693692262913657,1.5687997767189492,0.6799999999999999,,,binary
Yb0.234Pd0.766,Yb,Pd,0.2335703633539047,0.7664296366460953,1726.6075582896012,2321.863114026732,11893.007236187483,1.943072600310705,1.4817496271738666,1.1,,,binary
Cu0.725Lu0.275,Cu,Lu,0.7248991839495901,0.2751008160504099,1552.0496976576917,3791.815222920694,9580.847317111922,1.7266864858882418,1.460040326420164,0.6299999999999999,,,binary
Ag0.809Yb0.191,Ag,Yb,0.8091318077925248,0.1908681922074752,1341.7098339178206,2355.6230090923586,11053.262447658672,1.7715794004677956,1.6286302288311214,0.8299999999999998,,,binary
Ti0.746W0.254,Ti,W,0.7456862773258959,0.2543137226741041,2511.73095732035,4096.278105211075,10132.548220560257,1.7485372525927652,1.387284313866295,0.8199999999999998,,,binary
Ag0.151Y0.849,Ag,Y,0.15109759129851846,0.8489024087014816,1866.130930513641,3628.4982189919547,4694.486931755393,1.327279289821948,1.7697804817402965,0.71,,,binary
Tm0.602Pr0.398,Tm,Pr,0.602026266318977,0.39797373368102296,1372.2971657514565,2836.9655266394925,8374.146088418825,1.2022431519582772,1.7897973733681023,0.1200000000000001,,,binary
Ba0.509Ca0.491,Ba,Ca,0.5086255035407775,0.4913744964592225,991.625522681309,1980.868010196595,2951.5143303447458,0.9440511946105145,1.978018926239272,0.10999999999999999,,,binary
Cr0.787Ba0.213,Cr,Ba,0.787487826149977,0.21251217385002297,2063.3951583039884,2457.2873471979187,6297.565511267595,1.4963656261354823,1.5593841303875173,0.7699999999999999,,,binary
Zr0.226Os0.774,Zr,Os,0.22584798488090085,0.7741520151190991,2795.245202025395,4949.194202359912,18189.275895989478,2.0035122531536165,1.3564619962202253,0.8700000000000001,,,binary
Co0.639Pr0.361,Co,Pr,0.6392963452504776,0.3607036547495224,1491.2063707458124,2912.857939096284,7981.603359013196,1.609472258937858,1.5303518273747612,0.75,,,binary
Ni0.693Ru0.307,Ni,Ru,0.6926239699651294,0.3073760300348706,1886.1638357041386,2521.5170829540248,12019.38740145467,1.9991390487101124,1.3346311984982566,0.29000000000000026,,,binary
Al0.787V0.213,Al,V,0.7869512072976143,0.21304879270238575,1330.2984692329708,2869.0050326563787,3432.944723702118,1.6142609758540476,1.2713048792702386,0.019999999999999796,,,binary
Al0.137Rh0.863,Al,Rh,0.13678522391178954,0.8632147760882105,1817.488303416976,4452.7261141715235,13225.435459386226,2.188353899979101,1.3363214776088213,0.6699999999999997,,,binary
Os0.836Ir0.164,Os,Ir,0.8361812362079898,0.1638187637920102,3263.462254047335,5720.473653547134,23012.991018775017,2.2,1.3081909381896006,0.0,,,binary
Nb0.542V0.458,Nb,V,0.5422918307966916,0.45770816920330837,2157.5707420660938,4223.634164402665,7542.245582281503,1.6137312450760992,1.4042291830796692,0.029999999999999805,,,binary
Tm0.625Lu0.375,Tm,Lu,0.6245626355372029,0.3754373644627971,1773.7090228162015,2707.6088730234833,9429.249531899228,1.2575087472892559,1.75,0.020000000000000018,,,binary
Ru0.299Ta0.701,Ru,Ta,0.29861054668579456,0.7013894533142054,3061.0894958950703,5368.325620155819,13741.590388155668,1.7090273826800562,1.405208417997131,0.7000000000000002,,,binary
Yb0.317Ta0.683,Yb,Ta,0.31700636640785335,0.6829936335921467,2408.7533268255993,3817.2813802916294,14770.185172377858,1.373197453436859,1.545101909922356,0.3999999999999999,,,binary
Mn0.398Pr0.602,Mn,Pr,0.39824653339028904,0.601753466609711,1051.4131002014706,3428.1173484357205,7936.905656343262,1.2972635440239213,1.67078905997437,0.42000000000000015,,,binary
Sc0.822Ho0.178,Sc,Ho,0.8215528074066171,0.17844719259338293,1745.3400523331081,2280.7271180197604,3876.4670952111887,1.3368018649628604,1.6267670788890074,0.13000000000000012,,,binary
Nb0.743Ru0.257,Nb,Ru,0.7434704155670054,0.25652958443299456,2695.9010765196394,4373.003651386858,9053.046128378486,1.753917750659797,1.4115205623350506,0.6000000000000001,,,binary
V0.155Pt0.845,V,Pt,0.15514115021819608,0.8448588497818039,2379.1035655707146,4301.326164112627,17030.949886860326,2.1791582523581723,1.35,0.6499999999999999,,,binary
Ca0.719Cd0.281,Ca,Cd,0.7188219836047084,0.2811780163952916,813.8297513795621,1504.531240326186,3470.664374406495,1.1940128313127512,1.729705495901177,0.69,,,binary
Hf0.169Ta0.831,Hf,Ta,0.169108417946645,0.830891582053355,3314.0898745427453,5287.362315765105,16907.934049789783,1.466178316410671,1.4669108417946646,0.19999999999999996,,,binary
Ca0.395Al0.605,Ca,Al,0.3951354873220393,0.6048645126779607,1199.7204249642987,2577.371499817911,2234.7954623149008,1.3689673527335562,1.4673245180271217,0.6100000000000001,,,binary
Cd0.728Pr0.272,Cd,Pr,0.7276057738298732,0.27239422617012676,747.4648657753652,1665.6442429618978,9059.10044135498,1.537459233344729,1.631718267851038,0.56,,,binary
Lu0.294Eu0.706,Lu,Eu,0.29406719484285526,0.7059328051571447,1257.720342809223,2362.0095495463793,6629.596144510516,1.2205847036389998,1.8205932805157143,0.07000000000000006,,,binary
Os0.877Nd0.123,Os,Nd,0.877486196120743,0.12251380387925703,2906.330339841814,4357.555075339328,21340.74378522264,2.0701353678879877,1.3673825921335916,1.0600000000000003,,,binary
Mo0.820Yb0.180,Mo,Yb,0.8203546377811386,0.1796453622188614,2557.122781722622,4508.258313870612,9100.538213491123,1.969575916048007,1.5038936086656585,1.06,,,binary
Rh0.105Zn0.895,Rh,Zn,0.10510230620144326,0.8948976937985568,959.3707882796923,1343.874239644082,9016.03782064543,1.7162144529069092,1.35,0.6299999999999999,,,binary
Au0.286Ti0.714,Au,Ti,0.2863981934877944,0.7136018065122056,1459.1086431545639,3585.973823326825,9159.390254272024,1.8263981934877944,1.3856800903256103,1.0,,,binary
Re0.772Gd0.228,Re,Gd,0.7716592055169391,0.22834079448306088,2789.948895452867,5559.655045350875,20330.6523794366,1.7401614438618573,1.4527533575173774,0.7,,,binary
Al0.101W0.899,Al,W,0.1011696324284622,0.8988303675715378,2658.4366080648856,5798.40681251252,13193.558903157456,2.2841227756786533,1.3398830367571537,0.7499999999999998,,,binary
Dy0.779Ir0.221,Dy,Ir,0.7792047902231375,0.2207952097768625,1729.011060314073,3780.525560289286,10985.401583947885,1.4363793055813252,1.6616819160892549,0.9800000000000002,,,binary
Yb0.183Hf0.817,Yb,Hf,0.18315921548124772,0.8168407845187523,1984.0488232150913,4167.813894598557,14572.608610608619,1.2633681569037507,1.5866318430962496,0.19999999999999996,,,binary
Y0.436Rh0.564,Y,Rh,0.4358526736022762,0.5641473263977238,1671.3166601452094,3410.8190801025266,10316.377984565028,1.817996165981587,1.5461337031210243,1.0599999999999998,,,binary
Cr0.669Zn0.331,Cr,Zn,0.6693219797600822,0.33067802023991777,2001.7888119450163,2336.2671289550744,6255.316370395977,1.6566932197976008,1.383466098988004,0.010000000000000009,,,binary
Fe0.837V0.163,Fe,V,0.8370195223776852,0.16298047762231482,2263.892830441149,3736.874105203133,8101.5857352316325,1.7974039044755372,1.3918509761188842,0.20000000000000018,,,binary
Y0.661Au0.339,Y,Au,0.6606775277589436,0.3393224722410564,1508.9205011318143,3429.22908855883,9351.075838425135,1.6679056633581943,1.6473048874915246,1.32,,,binary
Os0.880Ca0.120,Os,Ca,0.8796438321346008,0.12035616786539916,3142.9545165739655,5565.625775868598,21840.75511861987,2.055572598561521,1.3601780839326998,1.2000000000000002,,,binary
Fe0.176Nd0.824,Fe,Nd,0.17646160426990845,0.8235383957300916,1238.1936501471469,3789.3126485240514,7208.384091090683,1.2617585069462367,1.7705922780785412,0.6900000000000002,,,binary
Cu0.756Gd0.244,Cu,Gd,0.7559703135153728,0.2440296864846272,1510.3184375388066,3759.674171750932,7707.445416186811,1.729179219460761,1.4598133589180824,0.7,,,binary
Mn0.554Nd0.446,Mn,Nd,0.5542565826313667,0.4457434173686333,1414.957568091228,2648.4728013340664,6046.984741835493,1.3672451988788603,1.6005845378158852,0.41000000000000014,,,binary
Hg0.871Dy0.129,Hg,Dy,0.8713746197861927,0.12862538021380732,434.8423594097082,1143.7533575074376,897.4899600572504,1.8996722034332303,1.5321563450534519,0.78,,,binary
Rh0.309Cd0.691,Rh,Cd,0.30879275113888804,0.691207248861112,1097.9428510710807,2068.6760210166967,9944.317248228333,1.872187723171944,1.4882414497722225,0.5899999999999999,,,binary
Ta0.661Pt0.339,Ta,Pt,0.6605804850572337,0.33941951494276634,2833.776022252078,4504.158968249524,18579.694062679246,1.7647472216553577,1.4160580485057235,0.7799999999999998,,,binary
Lu0.354Ta0.646,Lu,Ta,0.3544461754128805,0.6455538245871195,2593.8193034105707,3906.803181272156,15937.266284247124,1.4184773796550374,1.5563338526238641,0.22999999999999998,,,binary
Ag0.160Ru0.840,Ag,Ru,0.15974994864198377,0.8402500513580162,2616.6563933545563,4126.626087887296,12346.155687964427,2.1568675138666644,1.3479249845925954,0.27000000000000024,,,binary
Mo0.724Cu0.276,Mo,Cu,0.7239495859750903,0.2760504140249097,2736.8748067273887,4538.995076359502,10799.962082062993,2.0882268923535237,1.422394958597509,0.26000000000000023,,,binary
Nd0.224Co0.776,Nd,Co,0.22432844105754937,0.7756715589424507,1612.8896092823609,3663.735270761691,8699.297683878718,1.7139969536174133,1.4621642205287748,0.74,,,binary
Zr0.473Mg0.527,Zr,Mg,0.47284408994932947,0.5271559100506705,1521.7447587023687,2559.940690187206,4109.520400576176,1.3194568817989867,1.5236422044974667,0.020000000000000018,,,binary
Au0.529Ni0.471,Au,Ni,0.528739639272019,0.47126036072798105,1394.8605620236353,2954.4286305474125,13228.304346532745,2.243105972741372,1.35,0.6300000000000001,,,binary
Tc0.347Mg0.653,Tc,Mg,0.3466461745700037,0.6533538254299963,1291.282637430096,2987.060627975547,5803.866492508982,1.514521242996302,1.4480030738144993,0.5899999999999999,,,binary
Pd0.172Ni0.828,Pd,Ni,0.17233671043881993,0.8276632895611801,2080.3929451805548,2803.9487337671267,9512.12680032133,1.9599776460272578,1.358616835521941,0.29000000000000026,,,binary
Ho0.761Hf0.239,Ho,Hf,0.7611093503517198,0.23889064964828022,1670.2740284206293,3203.315097822209,8967.070225132215,1.2467223454753795,1.702221870070344,0.07000000000000006,,,binary
Er0.132Sm0.868,Er,Sm,0.1322638464869307,0.8677361535130693,1579.661239908136,2129.022384604287,8389.353346676417,1.1792584692540853,1.836773615351307,0.07000000000000006,,,binary
Ta0.173Zn0.827,Ta,Zn,0.1729703230330789,0.8270296769669211,1210.9262167542213,2420.356977277721,7485.2637488510245,1.6240544515450381,1.3672970323033078,0.1499999999999999,,,binary
Rh0.417Re0.583,Rh,Re,0.41699557014381694,0.5830044298561831,3320.8336206921445,5658.258216684456,15748.157372979025,2.0584583166546504,1.35,0.3799999999999999,,,binary
Cr0.339Ho0.661,Cr,Ho,0.3390725687752174,0.6609274312247826,2075.0937976405644,3076.435141636903,8046.534701894525,1.3758012045733434,1.6313246009286737,0.42999999999999994,,,binary
Nb0.862Ti0.138,Nb,Ti,0.8616772854589952,0.13832271454100475,2420.734756566046,4469.1792513912615,9649.483273440854,1.59170063712754,1.4430838642729498,0.06000000000000005,,,binary
Mg0.698Ce0.302,Mg,Ce,0.6984627577669673,0.3015372422330327,966.7889097960734,2207.6298395643216,2975.3783440763173,1.252707923975724,1.6055380347815613,0.18999999999999995,,,binary
Rh0.470Co0.530,Rh,Co,0.46963459910099115,0.5303654008990089,1833.203692168398,3945.939471232778,9141.078271038432,2.0678538396403963,1.35,0.3999999999999999,,,binary
Cu0.110Ni0.890,Cu,Ni,0.1095655385355304,0.8904344614644696,1617.3709033589744,3198.3802702313774,9008.540143300463,1.9089043446146448,1.35,0.010000000000000009,,,binary
Ru0.259Cu0.741,Ru,Cu,0.2585064281444157,0.7414935718555843,1650.6037054453748,3655.3296670102573,10491.66665628396,1.9775519284433247,1.3370746785927792,0.30000000000000027,,,binary
Pt0.649Os0.351,Pt,Os,0.6490282096284481,0.3509717903715519,2667.813908559157,4069.552181182956,21009.034995466507,2.2519222567702757,1.3324514104814225,0.07999999999999963,,,binary
Tb0.566Fe0.434,Tb,Fe,0.5658590411312505,0.4341409588687495,1912.0807827133292,3641.8648257324307,6961.430686911696,1.4169228999741872,1.5980506643959376,0.73,,,binary
Pd0.117Mn0.883,Pd,Mn,0.11744014619089019,0.8825598538091098,1609.9603660252565,1957.2576984239474,8042.274990059285,1.6263360950240786,1.4,0.6500000000000001,,,binary
Mn0.822Mo0.178,Mn,Mo,0.8219968655466252,0.1780031344533748,2098.897353329914,2528.155874286932,7305.217587886155,1.6585819120165588,1.4089001567226687,0.6100000000000001,,,binary
Mg0.174Cu0.826,Mg,Cu,0.17358291092561462,0.8264170890743854,1380.2730004492112,2436.6272985194214,7187.7938744397925,1.7975860825538872,1.3760374366388424,0.5899999999999999,,,binary
W0.134Ni0.866,W,Ni,0.13415705527234467,0.8658429447276553,2110.691258231098,3315.8776548882747,10052.510491681482,1.9703706748725551,1.35,0.44999999999999996,,,binary
Ca0.234Cr0.766,Ca,Cr,0.23439136698324514,0.7656086330167549,2074.0288088299617,2778.1522516436603,5985.300773406606,1.505301697791058,1.4937565467932978,0.6599999999999999,,,binary
Pr0.757Hg0.243,Pr,Hg,0.7573483212258271,0.24265167877417293,938.7812175429366,2956.7880533829225,4966.570251203422,1.3411069605335304,1.7650719124290395,0.8700000000000001,,,binary
Pt0.124Ba0.876,Pt,Ba,0.12358583440023319,0.8764141655997668,1180.3749118801045,2266.111383392132,5578.891611926598,1.0617843098163242,2.0511313324798133,1.3899999999999997,,,binary
Ho0.238Hg0.762,Ho,Hg,0.23824576946463136,0.7617542305353686,533.0452834562229,1188.7073432527116,1925.436729387102,1.8165507575122337,1.559561442366158,0.77,,,binary
Tc0.320Nb0.680,Tc,Nb,0.3199854152193937,0.6800145847806063,2352.6492090449665,4989.532706618152,9709.820826777704,1.695995624565818,1.4180014584780607,0.2999999999999998,,,binary
Mg0.128Zn0.872,Mg,Zn,0.12771955498520474,0.8722804450147953,778.6273959575877,1151.4922054166643,6713.25545622121,1.6065753513050305,1.3691579332477808,0.33999999999999986,,,binary
Eu0.618Rh0.382,Eu,Rh,0.6178227203792641,0.3821772796207359,1618.4055611661452,2745.471821470087,7337.61418158898,1.6127514619903947,1.6589113601896321,1.0799999999999998,,,binary
Ba0.806Au0.194,Ba,Au,0.8062228593271294,0.19377714067287055,1081.2795330178103,2419.0569457937663,6574.457118097623,1.2097322821102363,1.9949782874617035,1.65,,,binary
Sr0.170Cr0.830,Sr,Cr,0.17017724084720598,0.829822759152794,1572.970612559736,2768.3692061142624,7782.4361910731195,1.5391741589984838,1.5021063445083236,0.71,,,binary
Ir0.435Cu0.565,Ir,Cu,0.43538785695706483,0.5646121430429352,1888.6040086545956,3572.9514132859063,15454.08530372673,2.0306163570871196,1.35,0.30000000000000027,,,binary
Tb0.299Y0.701,Tb,Y,0.2993182041093968,0.7006817958906032,1802.7232371200228,4003.946113677668,4889.951058289293,1.1840818155068724,1.78503408979453,0.11999999999999988,,,binary
La0.892Ti0.108,La,Ti,0.8915228926092271,0.10847710739077288,1367.3290239228095,3942.971601698511,5883.370039223428,1.1477299272519401,1.8903375909350748,0.43999999999999995,,,binary
Tm0.484Re0.516,Tm,Re,0.48374755111049295,0.516252448889507,2755.4362056362957,4527.875123086609,16700.56942462584,1.5855640917781795,1.5434990204441972,0.6499999999999999,,,binary
Ba0.830Re0.170,Ba,Re,0.8301416132786936,0.16985838672130638,1255.638008462279,3003.5594324757467,6442.274834563939,1.0615569705885193,2.014113290622955,1.0099999999999998,,,binary
Sc0.411Ta0.589,Sc,Ta,0.4107050196554404,0.5892949803445596,2703.3573369758583,4685.716012624717,10871.881963679918,1.4425012972482385,1.511605752948316,0.1399999999999999,,,binary
Nb0.355Ti0.645,Nb,Ti,0.3551020538635037,0.6448979461364963,2493.8230691520803,4043.248668053445,5283.674368235224,1.5613061232318102,1.4177551026931752,0.06000000000000005,,,binary
Ru0.817Ti0.183,Ru,Ti,0.816611825291451,0.18338817470854896,2387.07667907664,4340.944584499061,12271.307007290485,2.078963804692358,1.318338817470855,0.6600000000000001,,,binary
Ag0.747Cr0.253,Ag,Cr,0.746923106858321,0.253076893141679,1563.007891338554,2345.754531198307,12038.460342673192,1.8616692388517464,1.5493846213716642,0.27,,,binary
Sr0.386Y0.614,Sr,Y,0.38594631413723324,0.6140536858627668,1549.9053289106987,3218.9672174669045,3704.025772653829,1.115794495182947,1.8771892628274467,0.27,,,binary
Nd0.879Ru0.121,Nd,Ru,0.8791838893868017,0.1208161106131983,1532.887227966729,3793.6588812862265,8383.29603381176,1.26806507724999,1.783551139162741,1.0600000000000003,,,binary
Co0.625Rh0.375,Co,Rh,0.6254915371009874,0.37450846289901263,2149.159274954601,3791.8118876520957,9907.186912709058,2.029803385159605,1.35,0.3999999999999999,,,binary
Ag0.753La0.247,Ag,La,0.7530281292869878,0.2469718707130122,1154.559908861526,2849.7736622907273,10295.895287586049,1.7250133473081999,1.6864401547495542,0.8299999999999998,,,binary
Lu0.711Cr0.289,Lu,Cr,0.7112397789740088,0.2887602210259912,1954.1201430531562,3832.8829295665346,10377.283194675483,1.3826164862001367,1.648933922640903,0.3899999999999999,,,binary
Ru0.777Pr0.223,Ru,Pr,0.7772040723721065,0.22279592762789346,2084.9845780729925,3877.261252062499,10937.655956935505,1.9616083574381542,1.4225377601953413,1.0700000000000003,,,binary
Ir0.848Re0.152,Ir,Re,0.8481648256732359,0.15183517432676408,2935.9392977954644,4622.441676280743,25431.781888977697,2.154449447701971,1.35,0.30000000000000027,,,binary
Nb0.574Rh0.426,Nb,Rh,0.5740156073451302,0.42598439265486976,2638.821260639392,4588.170234766989,8754.915063529765,1.8896693870053114,1.4074015607345132,0.6799999999999997,,,binary
Lu0.387Er0.613,Lu,Er,0.3870265061496496,0.6129734938503504,1606.2304062786989,3441.744838510374,7368.568092441897,1.2516107951844895,1.75,0.030000000000000027,,,binary
Nd0.663Ti0.337,Nd,Ti,0.6627623063359308,0.3372376936640692,1667.51271484328,3381.720784323029,7981.233338505107,1.2748950774656276,1.6982430378511688,0.40000000000000013,,,binary