formula,element_1,element_2,composition_1,composition_2,melting_point,boiling_point,density,electronegativity,atomic_radius,electronegativity_difference,element_3,composition_3,alloy_type
Ce0.200Ag0.800,Ce,Ag,0.20013623610152217,0.7998637638984778,1226.7122825490596,2543.26217260452,10514.554515148675,1.7678896487577669,1.6500340590253808,0.8099999999999998,,,binary
Hf0.527Eu0.473,Hf,Eu,0.5267824238147044,0.4732175761852956,1661.032566292397,3583.3153246840984,9972.871218896864,1.2526782423814704,1.6919652728555887,0.10000000000000009,,,binary
Sc0.235Tb0.765,Sc,Tb,0.23490872139816546,0.7650912786018346,1849.7737796352362,4349.814694621917,7263.766411838452,1.1610762675635231,1.714763691790275,0.26,,,binary
Nd0.237Zn0.763,Nd,Zn,0.23696049844463385,0.7630395015553662,793.3367184817267,1695.3076239334953,5810.566072117098,1.5291501457932366,1.468480249222317,0.51,,,binary
Eu0.822Yb0.178,Eu,Yb,0.8216007149525816,0.17839928504741842,1022.3190155883976,1669.6958172716606,5193.327794493582,1.182160071495258,1.8321600714952582,0.09999999999999987,,,binary
W0.133Pr0.867,W,Pr,0.1329554428174273,0.8670445571825727,1562.1024238654545,3546.349166848612,9248.880926430405,1.2935351946654354,1.7835222785912865,1.23,,,binary
Ti0.136Fe0.864,Ti,Fe,0.1363694426330736,0.8636305573669264,1828.765894084242,3189.1246332054625,7171.715266676337,1.7904528616364086,1.4,0.29000000000000004,,,binary
Tb0.312Pr0.688,Tb,Pr,0.3117247262664436,0.6882752737335565,1360.019806530374,3836.7358069409133,6513.757573333075,1.1206482582120068,1.8188275273733558,0.029999999999999805,,,binary
Tc0.433Pr0.567,Tc,Pr,0.433269426930597,0.566730573069403,1623.1104454809074,3864.389574967089,7568.632505960892,1.4636174587365596,1.6333652865347017,0.77,,,binary
Gd0.498Ti0.502,Gd,Ti,0.4984304481088929,0.5015695518911071,1619.0778229133941,3372.901685476651,6740.678196309942,1.3705336476429766,1.5993721792435571,0.3400000000000001,,,binary
Gd0.332La0.668,Gd,La,0.33173732544128465,0.6682626745587154,1357.7789727303716,3741.0656302403404,7300.700088488768,1.1331737325441285,1.9002394011838073,0.09999999999999987,,,binary
Hf0.296Sr0.704,Hf,Sr,0.29590232851915443,0.7040976714808456,1460.491311713984,2709.938592341484,5730.469028637603,1.053565814981704,1.8668439521663804,0.3500000000000001,,,binary
Ho0.338Pt0.662,Ho,Pt,0.3379470971437939,0.6620529028562061,1988.9294172319157,3507.5160061994966,12804.818108520427,1.9251555479990163,1.4851788388575176,1.0499999999999998,,,binary
Mn0.148Er0.852,Mn,Er,0.1479304263477352,0.8520695736522648,1736.500734773664,3451.520589000821,9647.742259102031,1.2858584321677977,1.6982243507782926,0.31000000000000005,,,binary
Mg0.487Au0.513,Mg,Au,0.48740090408588743,0.5125990959141126,1244.9949834207132,2548.6353547763647,10835.485927421096,1.9404968879743585,1.423110135612883,1.23,,,binary
Tc0.585W0.415,Tc,W,0.585328210256509,0.41467178974349095,3012.8579200031754,4759.596335238544,14248.64605098494,2.0907490232820054,1.35,0.45999999999999996,,,binary
Ta0.355Tm0.645,Ta,Tm,0.35545311411738245,0.6445468858826175,2485.3929871608943,3887.6689395643766,11759.810629178197,1.3388632785293457,1.6433640657647852,0.25,,,binary
Re0.205Pt0.795,Re,Pt,0.2046129212419092,0.7953870787580908,2226.4994833513,4460.604972676673,22342.761026320386,2.202247089928074,1.35,0.3799999999999999,,,binary
Os0.549Sc0.451,Os,Sc,0.5493209725986954,0.4506790274013046,2253.3351794726727,3313.888947113072,13007.586766358414,1.8214296169829043,1.4352037082203914,0.8400000000000001,,,binary
Ta0.473Rh0.527,Ta,Rh,0.4731780536325092,0.5268219463674908,2401.36033187651,4558.193166904398,14223.992238807024,1.9109211181666428,1.397317805363251,0.7799999999999998,,,binary
Ag0.298Mg0.702,Ag,Mg,0.2983351060204365,0.7016648939795636,970.0069267481402,1927.2386829934183,4491.13108860614,1.4949677657326705,1.5298335106020438,0.6199999999999999,,,binary
Co0.332Cr0.668,Co,Cr,0.3321696039759212,0.6678303960240788,2104.5374254567632,3217.5041663202874,6844.9133656540425,1.7330773128747026,1.383391519801204,0.21999999999999997,,,binary
Ir0.435Eu0.565,Ir,Eu,0.43450779466790124,0.5654922053320988,1999.8375247639713,3037.3193985513312,13665.73006169859,1.6345077946679014,1.6327461026660495,1.0000000000000002,,,binary
Zr0.847Ta0.153,Zr,Ta,0.8470012281995238,0.15299877180047616,2058.6373856098985,4090.088695486424,8721.658008743994,1.3560097912060811,1.5347001228199526,0.16999999999999993,,,binary
Yb0.252Ta0.748,Yb,Ta,0.2518672809786878,0.7481327190213122,2840.702996918547,4237.407380120217,12883.98077046585,1.3992530876085247,1.5255601842936062,0.3999999999999999,,,binary
Zr0.897Ba0.103,Zr,Ba,0.8967755288763335,0.1032244711236665,2237.951070802239,3894.2033509868834,7219.881551569451,1.2845812327055868,1.6119346826741998,0.44000000000000006,,,binary
Ca0.803Ba0.197,Ca,Ba,0.8032605308803349,0.1967394691196651,993.993407057948,1949.9549363070146,1872.0016597389442,0.9783586583968369,1.868858814191883,0.10999999999999999,,,binary
Ba0.172Ti0.828,Ba,Ti,0.17203927603502747,0.8279607239649726,1886.4247831092841,3135.7801534306154,4264.8983543646145,1.4281744705772321,1.5290294570262706,0.65,,,binary
Pt0.466Sc0.534,Pt,Sc,0.46578451375178476,0.5342154862482152,1927.775550288145,3209.0298856744935,12263.903979425388,1.7885217526516421,1.4835538715620538,0.9199999999999997,,,binary
Rh0.567Tc0.433,Rh,Tc,0.5666752895885413,0.4333247104114587,2201.533703572357,4118.640332977068,10841.309788427521,2.1153366100436455,1.35,0.3799999999999999,,,binary
Cr0.496Cd0.504,Cr,Cd,0.49591536282014104,0.504084637179859,1026.868509499419,1946.318685640521,9807.41573096141,1.6751225391153957,1.4756126955769788,0.030000000000000027,,,binary
Tb0.476Ho0.524,Tb,Ho,0.4764694826945566,0.5235305173054434,1816.0957678472544,3229.7667783781235,8296.556038425388,1.1680589672497077,1.75,0.1299999999999999,,,binary
La0.778Al0.222,La,Al,0.7777378923147743,0.2222621076852257,1137.8669046569416,3724.8508944857585,4744.797471713584,1.213353674919465,1.7944165246203418,0.51,,,binary
Hg0.806Cu0.194,Hg,Cu,0.8059645847348743,0.1940354152651257,502.7108701447595,1209.3103983178855,1855.0991954134215,1.9805964584734874,1.4708946877102314,0.10000000000000009,,,binary
Yb0.711Os0.289,Yb,Os,0.7110854113295917,0.2889145886704083,1811.2971770527433,2576.5424901069914,11958.076515567023,1.4178060475374492,1.6199884350983162,1.1,,,binary
Os0.420V0.580,Os,V,0.42046529681180533,0.5795347031881947,2812.3199831119314,4200.667495622862,12299.26030866154,1.869665219182729,1.3289767351594097,0.5700000000000003,,,binary
Pr0.256Ce0.744,Pr,Ce,0.25572424151017525,0.7442757584898247,1115.0443058792894,4175.085470109214,5849.183450874757,1.1225572424151018,1.85,0.009999999999999787,,,binary
Ce0.159Cd0.841,Ce,Cd,0.15882539979427346,0.8411746002057265,571.2221337335453,1475.7548050953687,8380.976322002914,1.5994695221172641,1.597647619938282,0.5699999999999998,,,binary
Sc0.712Mg0.288,Sc,Mg,0.7115232917657917,0.28847670823420835,1583.9559824632088,2664.503987087206,2566.6729366888844,1.3455761645882895,1.5711523291765792,0.050000000000000044,,,binary
Ag0.644Eu0.356,Ag,Eu,0.6443189120950886,0.3556810879049114,1363.3668237761772,1855.4800059835347,7909.593141194522,1.6703528058294148,1.6889202719762277,0.73,,,binary
Ni0.880Cu0.120,Ni,Cu,0.8800662523310273,0.11993374766897269,1666.2129888954844,2663.8832139244987,8752.762792450618,1.9088006625233103,1.35,0.010000000000000009,,,binary
Pt0.736Os0.264,Pt,Os,0.7359177827047566,0.2640822172952434,2770.017078789191,4420.679594374841,21987.213629470036,2.2588734226163805,1.3367958891352378,0.07999999999999963,,,binary
W0.851Ce0.149,W,Ce,0.8511588535643003,0.14884114643569968,2887.6365871466855,5162.215171489026,16728.299804152277,2.1754369784197323,1.4244205732178499,1.2399999999999998,,,binary
Zn0.582Mo0.418,Zn,Mo,0.581970360929504,0.41802963907049595,1562.4623286887195,3091.2681135449466,8924.007741387017,1.863195115925953,1.3918029639070495,0.5100000000000002,,,binary
Pt0.132Sc0.868,Pt,Sc,0.1322039249259433,0.8677960750740568,1639.1033039080626,3314.2759335213245,5646.523221994693,1.481627610931868,1.5669490187685144,0.9199999999999997,,,binary
V0.671Cu0.329,V,Cu,0.6708734770598453,0.32912652294015465,2129.3224274413783,4078.688744340174,6320.742445725538,1.7188641611938416,1.35,0.27,,,binary
Sr0.466Y0.534,Sr,Y,0.4655908474262992,0.5344091525737008,1332.6760239113635,2359.7856060452796,3529.7979503799993,1.0942904711948993,1.89311816948526,0.27,,,binary
Sm0.212Sc0.788,Sm,Sc,0.21182478861788417,0.7881752113821159,1794.618507477084,3170.3469668616353,3880.551922523625,1.3197532901626023,1.6529561971544713,0.19000000000000017,,,binary
Eu0.230Ta0.770,Eu,Ta,0.23000163670155152,0.7699983632984485,2696.9547697731796,4900.115078491592,12855.1796781589,1.4309995089895347,1.5420006546806206,0.30000000000000004,,,binary
Eu0.774Lu0.226,Eu,Lu,0.7740815418913026,0.22591845810869737,1554.2415511571612,1866.118067746065,6398.611291704326,1.2158142920676087,1.8274081541891305,0.07000000000000006,,,binary
Nd0.506W0.494,Nd,W,0.5058519889610372,0.4941480110389628,2984.2193021138614,4589.251866503424,12706.001466732709,1.7428605734675346,1.6029259944805188,1.22,,,binary
Sc0.492La0.508,Sc,La,0.49187732165300735,0.5081226783469927,1444.8941994485472,3366.356664603928,5221.474653768022,1.227888103629782,1.7778429374214473,0.26,,,binary
Pr0.480Hf0.520,Pr,Hf,0.4799140799984266,0.5200859200015734,1466.56210610172,4896.949259243452,8669.498633378471,1.2184146064002674,1.6939742239995281,0.17000000000000015,,,binary
Ti0.365Os0.635,Ti,Os,0.3649916748631381,0.6350083251368619,2732.9160864215114,4455.559370114349,16944.39135873068,1.9591054945903288,1.3364991674863138,0.6600000000000001,,,binary
Ni0.567Au0.433,Ni,Au,0.5669617134790291,0.43303828652097087,1309.7053240929167,3307.424239863449,16122.355316575628,2.1828141205082114,1.35,0.6300000000000001,,,binary
Yb0.603Er0.397,Yb,Er,0.6034083844819496,0.39659161551805044,1188.9429522960802,2172.548455549464,7059.441250819087,1.1555228261725272,1.75,0.1399999999999999,,,binary
Sm0.312Sr0.688,Sm,Sr,0.31242434958857707,0.687575650411423,1190.8085370139913,1789.951460302306,3842.2126076743975,1.018733356909487,1.9531363475617136,0.21999999999999997,,,binary
Tb0.562Nd0.438,Tb,Nd,0.5621075166913463,0.4378924833086537,1556.0013886158843,4067.8656838590505,7452.5889178622265,1.1175156993323463,1.7937892483308655,0.039999999999999813,,,binary
Yb0.567Cr0.433,Yb,Cr,0.566818621638112,0.43318137836188797,1678.8592743872202,1835.328025605415,6164.918991699392,1.3425815718826573,1.5983865175733392,0.5599999999999998,,,binary
Zr0.603Y0.397,Zr,Y,0.6032201929162909,0.3967798070837091,2091.8206815601015,4887.9329333285905,5904.735494801029,1.2863542212207921,1.6491949517709272,0.1100000000000001,,,binary
Eu0.218Ir0.782,Eu,Ir,0.21822056664026546,0.7817794333597345,2306.5754510828488,4067.6538840030094,16494.427569003212,1.9817794333597347,1.459110283320133,1.0000000000000002,,,binary
Ho0.125Rh0.875,Ho,Rh,0.1252564106736795,0.8747435893263205,2305.417417112016,4185.209266163569,11450.032600739407,2.1484807687926364,1.400102564269472,1.0499999999999998,,,binary
Er0.253Ni0.747,Er,Ni,0.25262746226154187,0.7473725377384581,1664.5924319679232,3259.038311524449,8557.14202527392,1.7407396002847668,1.451050984904617,0.6699999999999999,,,binary
Mg0.435Ta0.565,Mg,Ta,0.4350242385353521,0.5649757614646479,2245.3496881936585,4635.17851515478,9911.868347194459,1.417345394678283,1.4717512119267675,0.18999999999999995,,,binary
Au0.263Er0.737,Au,Er,0.2631133461617077,0.7368866538382923,1619.5473242257933,2934.654210965568,12633.775145840294,1.5820473500102201,1.644754661535317,1.3,,,binary
Sc0.836Eu0.164,Sc,Eu,0.8364167599177685,0.16358324008223146,1666.283552796132,2702.191903277389,3797.770540669425,1.333826681586843,1.640895810020558,0.16000000000000014,,,binary
Lu0.150Yb0.850,Lu,Yb,0.14982502881154558,0.8501749711884544,1394.3964761062286,1691.4669514965271,5742.285966307546,1.125470254897963,1.75,0.16999999999999993,,,binary
Cu0.266Y0.734,Cu,Y,0.2658733639769958,0.7341266360230042,1851.1211338997823,3260.6197057621434,6101.67224768233,1.400793887504357,1.680356986210352,0.6799999999999999,,,binary
Ta0.483Dy0.517,Ta,Dy,0.48269678667472093,0.5173032133252791,1973.0593772324708,4613.533907300861,10951.197294747097,1.355155100268922,1.6051909639975837,0.28,,,binary
Ir0.865Ta0.135,Ir,Ta,0.8653483937572385,0.1346516062427615,3018.771088041253,4846.598878445502,19758.487262658055,2.105743875630067,1.3634651606242763,0.7000000000000002,,,binary
Ca0.374La0.626,Ca,La,0.3738616141454769,0.6261383858545231,1116.4663289376274,3206.441430895433,4474.619247481951,1.0626138385854524,1.8939207578781785,0.10000000000000009,,,binary
Re0.718Ho0.282,Re,Ho,0.7175918273189926,0.2824081726810074,3145.5244342418587,6056.239403132063,14819.569238233835,1.710786524303725,1.462963269072403,0.6699999999999999,,,binary
Yb0.615Ho0.385,Yb,Ho,0.6146472799995693,0.38535272000043075,1559.5755678682735,2077.7360223852256,6759.846056961228,1.150095853600056,1.75,0.1299999999999999,,,binary
Er0.588Pd0.412,Er,Pd,0.5880612640630013,0.4119387359369987,1571.5809286196202,3119.991358031141,11231.937295718171,1.6354611864995188,1.6058214424220503,0.9600000000000002,,,binary
Mo0.323Rh0.677,Mo,Rh,0.3232051167374054,0.6767948832625946,2418.7427372837988,4918.83809425457,10043.710110168822,2.241215385991511,1.3823205116737405,0.11999999999999966,,,binary
Hf0.853Ru0.147,Hf,Ru,0.8531884370619691,0.14681156293803088,2517.7805520735114,4207.156440999375,13650.972942299992,1.4321304066442277,1.5132971092654923,0.9000000000000001,,,binary
Hf0.664Cd0.336,Hf,Cd,0.663920749469267,0.33607925053073295,2028.761025077261,3435.8811550184787,8685.515613735228,1.4310709077069859,1.55,0.3899999999999999,,,binary
Er0.491Tm0.509,Er,Tm,0.49120246360922304,0.508797536390777,1846.153175558116,2790.7044250690583,9567.52245309808,1.2450879753639077,1.75,0.010000000000000009,,,binary
Sr0.548Re0.452,Sr,Re,0.5483900721889756,0.4516099278110244,2402.1296901392275,3176.9943144706353,11678.930132984135,1.3790294314204732,1.7064535469228344,0.95,,,binary
Yb0.330Ag0.670,Yb,Ag,0.33023150039836224,0.6697684996016378,1331.2157670911815,1739.6478833572805,9489.428115812732,1.6559078546693593,1.6495347250597543,0.8299999999999998,,,binary
Pr0.535Ho0.465,Pr,Ho,0.5345527015906225,0.4654472984093775,1379.5767586001919,3270.8113484339315,7908.769417878085,1.1765447298409377,1.8034552701590623,0.10000000000000009,,,binary
Pt0.864Re0.136,Pt,Re,0.8636870907131691,0.13631290928683093,2125.759273742407,4046.1927117975924,21152.452956924455,2.228201094471004,1.35,0.3799999999999999,,,binary
Zn0.134Cd0.866,Zn,Cd,0.13365318946618043,0.8663468105338196,541.3424043197723,943.7538972377135,9022.13071234155,1.6846538724213527,1.5232693621067641,0.040000000000000036,,,binary
Tm0.377Fe0.623,Tm,Fe,0.37709081127649324,0.6229091887235068,1605.2897961394076,2976.4027934205396,8809.136100489717,1.611287329459634,1.5319817839467726,0.5800000000000001,,,binary
Mg0.305Tb0.695,Mg,Tb,0.30515518037878564,0.6948448196212144,1169.607230304374,2656.864162108399,6986.567497121954,1.164082587879545,1.6737112049053036,0.20999999999999996,,,binary
Sr0.262Tc0.738,Sr,Tc,0.26165440576047716,0.7383455942395228,1865.9219231760153,3607.936013313643,9603.256910030002,1.6514283145275466,1.52007536374431,0.95,,,binary
La0.846Ag0.154,La,Ag,0.8464191470266462,0.15358085297335378,1293.4026086131407,3453.018246877447,6406.06225480194,1.2274721079678836,1.8962467014593263,0.8299999999999998,,,binary
Er0.210Ag0.790,Er,Ag,0.20981836384073838,0.7901816361592616,1546.4880192719777,3032.312460619562,11188.794292163106,1.7852253289498905,1.631472754576111,0.69,,,binary
Eu0.569Lu0.431,Eu,Lu,0.5694643988566521,0.4305356011433479,1467.0329747303888,2396.518828182741,6623.327866797483,1.2301374920800345,1.8069464398856652,0.07000000000000006,,,binary
Rh0.636Cr0.364,Rh,Cr,0.6358671719144832,0.36413282808551684,2332.046326275545,3745.547499279394,11990.43949149488,2.0542376465869796,1.368206641404276,0.6199999999999999,,,binary
Y0.610Ru0.390,Y,Ru,0.6103556587269101,0.3896443412730899,2251.326890581159,3336.035540738712,8343.56949981678,1.6018514544476283,1.605177829363455,0.9800000000000002,,,binary
Cr0.431Co0.569,Cr,Co,0.43064109283860696,0.569358907161393,1751.2590074665643,2971.1181306977724,8345.786477884292,1.7852589595755064,1.3715320546419303,0.21999999999999997,,,binary
Tm0.180Sr0.820,Tm,Sr,0.18043592382187834,0.8195640761781217,1425.7747961524421,2304.0519361210086,4070.114409578006,1.0041307771465635,1.9548910190445303,0.30000000000000004,,,binary
Cu0.872Al0.128,Cu,Al,0.8716150137803111,0.12838498621968886,1279.4203037215332,3315.8609351233104,8842.3498919702,1.8627683539962903,1.3371615013780311,0.2899999999999998,,,binary
Zr0.622Au0.378,Zr,Au,0.6223142381610398,0.3776857618389602,1770.7130585651782,4830.674566835605,11602.15159152448,1.7869997718251418,1.474462847632208,1.21,,,binary
Sr0.260Tb0.740,Sr,Tb,0.2595647797340813,0.7404352202659187,1552.3138600380014,3224.654783508698,7053.634593264667,1.061065283039888,1.8148911949335202,0.15000000000000013,,,binary
Cd0.328Ta0.672,Cd,Ta,0.3283322730415935,0.6716677269584065,2606.6442548625573,3932.1152548613654,13240.416182480078,1.5623831318779027,1.4828332273041593,0.18999999999999995,,,binary
Cr0.622Fe0.378,Cr,Fe,0.6218389843352636,0.37816101566473637,1815.976670246422,3148.397597674282,7995.351803982661,1.7242873726630052,1.4,0.17000000000000015,,,binary
Ru0.691La0.309,Ru,La,0.6909492178149084,0.30905078218509163,2269.3390063801617,4918.283254036096,10440.62206855572,1.8600441395963994,1.5008830084203095,1.1,,,binary
V0.434Nb0.566,V,Nb,0.43430798579600427,0.5656920142039957,2671.1833883309228,3952.015663862511,7211.215550973905,1.6130292395738801,1.4065692014203997,0.029999999999999805,,,binary
Nb0.898V0.102,Nb,V,0.897737442470808,0.102262557529192,2879.257085665554,5294.660137587304,8073.899640056692,1.6030678767258757,1.4397737442470808,0.029999999999999805,,,binary
Pt0.249Ba0.751,Pt,Ba,0.24904930553799112,0.7509506944620089,1250.3430237862658,2230.707082223308,7606.6519184727,1.2361785346978076,1.950760555569607,1.3899999999999997,,,binary
Lu0.801Cd0.199,Lu,Cd,0.8013945343343387,0.19860546566566128,1808.565734197953,3332.9605017598374,10085.323324408779,1.3534142955795778,1.7102789068668678,0.41999999999999993,,,binary
Al0.554Hf0.446,Al,Hf,0.5543694949315964,0.4456305050684036,1642.3715399399955,3723.3219577360637,6937.643894410691,1.4718545434287948,1.3836891515205212,0.31000000000000005,,,binary
Co0.328W0.672,Co,W,0.32764932188003704,0.672350678119963,3277.7142122073597,5176.032215952728,16639.11382156432,2.2027283254975822,1.35,0.48,,,binary
Tb0.519La0.481,Tb,La,0.5194548278684165,0.48054517213158354,1344.8125898552178,2839.180131422575,8015.2845947140395,1.1,1.8461090344263167,0.0,,,binary
Cu0.474Sc0.526,Cu,Sc,0.4744166152050321,0.5255833847949679,1521.0598990964695,2877.328735063022,6202.926330844285,1.6161849722107173,1.4813958461987422,0.5399999999999998,,,binary
Mo0.365Ni0.635,Mo,Ni,0.3645472774654285,0.6354527225345715,2069.3598818778155,4219.596441788046,9988.647864089757,2.0011368193663572,1.3864547277465429,0.2500000000000002,,,binary
Yb0.619Ca0.381,Yb,Ca,0.6186282709673934,0.38137172903260663,1179.3214951041439,1363.1731815147918,5219.736129710046,1.0618628270967394,1.7690685864516302,0.10000000000000009,,,binary
Tm0.111Nb0.889,Tm,Nb,0.1112673564947718,0.8887326435052282,2715.4335210976124,4532.332789606534,8777.64388086393,1.56105642522683,1.4833802069484314,0.3500000000000001,,,binary
W0.554Cd0.446,W,Cd,0.5542249779367515,0.4457750220632485,1901.9509720739795,3844.5703898454444,13029.644806056487,2.0613307352176236,1.4391550044126498,0.6699999999999999,,,binary
Mo0.589Nb0.411,Mo,Nb,0.5887635997304111,0.41123640026958885,2452.3476727632406,4200.823469885674,10642.38357353474,1.9297076158490305,1.45,0.56,,,binary
Gd0.762Pt0.238,Gd,Pt,0.7615918602210477,0.23840813977895225,1587.2242451446712,4221.442009865776,10453.552685231865,1.4574807909612684,1.6927163370994713,1.0799999999999998,,,binary