formula,element_1,element_2,composition_1,composition_2,melting_point,boiling_point,density,electronegativity,atomic_radius,electronegativity_difference,element_3,composition_3,alloy_type
Eu0.180Rh0.341Ce0.479,Eu,Rh,0.1795101447920938,0.341187328039916,1260.6192994629666,3242.1570753469073,8288.973044589397,1.53013811210967,1.6794063359800422,0.0,Ce,0.47930252716799016,ternary
Mn0.507W0.395Tc0.098,Mn,W,0.5069578524457657,0.39548509952108746,2576.926748771504,4429.255736859344,12491.417564757214,1.904487897423682,1.3753478926222882,0.0,Tc,0.0975570480331468,ternary
Hg0.372Pr0.218W0.410,Hg,Pr,0.37226344009538426,0.21807715957271104,1599.2030162610392,3685.354426852257,10038.652480963054,1.9577502552912271,1.5148780958006633,0.0,W,0.40965940033190473,ternary
Dy0.564Mn0.387Lu0.050,Dy,Mn,0.5639322968381236,0.3866763549365075,1314.297068696504,2686.797852658168,6898.36061886031,1.3508457522940973,1.6157284163778267,0.0,Lu,0.05,ternary
Ba0.398Ni0.263Nd0.339,Ba,Ni,0.39803774678300485,0.2626890471394647,1206.1287291802446,2578.4084233117787,6533.340443328116,1.2427611296016365,1.838066800465169,0.0,Nd,0.3392732060775304,ternary
Co0.254Mg0.303Nb0.443,Co,Mg,0.2540178617681691,0.30289684858026966,1969.9106439824877,3005.3072609561314,7163.908304750834,1.5832849152068094,1.4397430562521967,0.0,Nb,0.44308528965156124,ternary
Sm0.485Co0.475Ho0.050,Sm,Co,0.4852213578140035,0.4752203203748761,1353.0408659963534,2766.068294019151,7566.539366480002,1.5226231909471513,1.6267069444619893,0.0,Ho,0.05,ternary
Ir0.422Ta0.131Ba0.447,Ir,Ta,0.4224945577240168,0.13074111078133063,1959.732249131644,3879.0593123457706,14008.767000153784,1.5232199481950737,1.720485576273855,0.0,Ba,0.44676433149465256,ternary
Tc0.540Cu0.414Nd0.050,Tc,Cu,0.540424483790506,0.4143629241335334,2200.1554337084594,3914.591655095067,10565.141591147643,1.8710960750556747,1.381463000697453,0.0,Nd,0.05,ternary
Al0.175Zn0.366Dy0.460,Al,Zn,0.17460821588700418,0.3656279105376573,1136.6259838215324,2265.163335185246,7321.69840784824,1.4453172057271244,1.516444727841435,0.0,Dy,0.45976387357533854,ternary
Ir0.324Eu0.203Pr0.474,Ir,Eu,0.32357988430435436,0.2028308409508943,1664.763482830397,2929.0470821350955,11919.792069196048,1.4904286350722216,1.6882100578478227,0.0,Pr,0.4735892747447513,ternary
Ta0.497Hf0.440Pr0.063,Ta,Hf,0.49717332986445817,0.4397794637998571,2916.5343432839472,4863.367139286436,12681.24654396,1.3887166408958254,1.5191968289142594,0.0,Pr,0.06304720633568472,ternary
Hg0.573Tm0.385Re0.050,Hg,Tm,0.5731198629061149,0.3854865029718976,1156.8350736710777,1585.6594859794018,4537.731721473918,1.7230978545271018,1.601781174559993,0.0,Re,0.05,ternary
Eu0.474Sc0.500Pt0.050,Eu,Sc,0.47389888098506366,0.4998642454468474,1355.7136713888717,2394.5855186209333,5687.147585397719,1.3624940309897888,1.7439957225373237,0.0,Pt,0.05,ternary
Cr0.584Os0.100Ce0.316,Cr,Os,0.5839497583103452,0.1004216570532103,1968.8310674403874,3209.545257760345,8987.018700828132,1.5437882591050536,1.531990697381079,0.0,Ce,0.3156285846364445,ternary
Ce0.474Re0.503Ni0.050,Ce,Re,0.47401026072321706,0.5027539233323692,2141.778096503685,5557.255717008586,16102.746548734334,1.5816239463415047,1.62313677883665,0.0,Ni,0.05,ternary
Rh0.395Hg0.413Er0.192,Rh,Hg,0.3950819372917277,0.4126071517099712,1265.1091331629448,2278.7575560652667,4917.992210458292,1.964466650082975,1.4888154371558162,0.0,Er,0.1923109109983011,ternary
Tm0.291Ir0.373Pt0.337,Tm,Ir,0.2907825225412475,0.3725593939841392,1905.0052845564371,3271.4599385641427,18495.68163706624,1.9506892502637838,1.4663130090164989,0.0,Pt,0.33665808347461335,ternary
Dy0.170Nb0.378Sr0.453,Dy,Nb,0.16953443284417255,0.3777107893846745,1740.2283630730003,2705.24212556714,5712.163676654079,1.241286309967965,1.7498754576273858,0.0,Sr,0.4527547777711529,ternary
Os0.244Au0.536Zn0.219,Os,Au,0.244235435863793,0.5363678457962948,1761.4455125846202,3398.3522168461786,14127.424758621657,2.2616968724837885,1.3377882282068105,0.0,Zn,0.21939671833991214,ternary
Cu0.424Al0.172Mn0.404,Cu,Al,0.4241946213532529,0.17199794322751175,1332.5828948834928,2395.541212651229,7919.726531141798,1.7087879940672894,1.3529905774482107,0.0,Mn,0.40380743541923536,ternary
Ba0.587Dy0.168Hg0.245,Ba,Dy,0.5874875135355355,0.16788787277290015,999.5389410292939,1720.1558500519332,3229.7514796502737,1.2169363192126934,1.923838851991323,0.0,Hg,0.24462461369156432,ternary
Cu0.468Tb0.512Au0.050,Cu,Tb,0.4676271759702742,0.5120684595672677,1465.1075740668066,2670.177621566983,9658.884819805851,1.5787669398675155,1.5949164918025884,0.0,Au,0.05,ternary
Er0.412Sm0.327Hg0.261,Er,Sm,0.4116242407999835,0.32719717960586736,1209.1111543890586,2343.9800306919333,5463.4993124926405,1.4155919179191425,1.7174250730620495,0.0,Hg,0.26117857959414914,ternary
Hg0.292Ce0.213Mg0.495,Hg,Ce,0.29235735891501313,0.21287045920562384,705.934966892213,1386.035632403363,2054.44421751485,1.4712811904022907,1.5745046607219684,0.0,Mg,0.494772181879363,ternary
Hg0.389Sm0.523Al0.088,Hg,Sm,0.3889692503890282,0.5234019433368495,773.2676510394265,1733.2359669451566,3799.92027238281,1.5314011525835072,1.6612834785993669,0.0,Al,0.08762880627412228,ternary
Rh0.235Tm0.563Sc0.202,Rh,Tm,0.23462522406443134,0.5632822258255119,1939.2854461120007,2703.257950084418,7660.7682818403955,1.5138941612984707,1.6258360278577189,0.0,Sc,0.20209255011005678,ternary
Pr0.575Os0.380V0.050,Pr,Os,0.5750778553659045,0.3804097831646318,2026.7840171118482,4497.695690591871,11188.198407383856,1.5682394995256619,1.6259267505409447,0.0,V,0.05,ternary
Tm0.382Os0.573Ni0.050,Tm,Os,0.381695597069467,0.5732867222894457,2892.095405343472,3694.5438017917504,16145.805684088356,1.8338502853736143,1.4807400338478467,0.0,Ni,0.05,ternary
Fe0.418Zn0.557Yb0.050,Fe,Zn,0.41833662096420593,0.5565642078113596,1261.55321405168,1905.837984819673,7624.894179264,1.73888695925324,1.4245329498952237,0.0,Yb,0.05,ternary
Ag0.139Ca0.545Y0.316,Ag,Ca,0.13911730096994632,0.5449577391522773,1305.363704017351,2467.933965209437,2831.958435615723,1.1988825810751609,1.7721765398060105,0.0,Y,0.31592495987777636,ternary
Fe0.415Rh0.432Sr0.153,Fe,Rh,0.4153314245555032,0.431868469567638,1534.9536636782473,3469.496479923727,9987.486252212018,1.8898767181338014,1.4700866400477335,0.0,Sr,0.15280010587685877,ternary
Dy0.417Mn0.499Ho0.084,Dy,Mn,0.41684383205770403,0.49904912032048565,1458.135062098827,2536.8936224774448,8268.769998686415,1.3855272801819782,1.5753328078878301,0.0,Ho,0.08410704762181032,ternary
Hf0.552Eu0.368Cr0.081,Hf,Eu,0.5517926363034031,0.3675166308079926,2098.64973327167,2861.7643773283235,8975.198835355168,1.2922970007590984,1.6481513793091074,0.0,Cr,0.08069073288860429,ternary
Al0.356Sr0.335Ca0.309,Al,Sr,0.356331555195358,0.3346161960585613,994.3571263960338,2238.746195523181,2901.0941643677165,1.2006314388662402,1.6709408838542656,0.0,Ca,0.3090522487460807,ternary
Yb0.276W0.589Au0.135,Yb,W,0.2764572708330352,0.5888802573018641,2598.6413624581633,3660.171092417359,16384.87763282731,2.035903083686094,1.460582908333214,0.0,Au,0.13466247186510072,ternary
Cd0.448Zr0.399V0.154,Cd,Zr,0.4475255814301391,0.3988182594978261,1641.59567638274,2929.4524558098597,6735.119061212214,1.5372060570364607,1.5192687681855932,0.0,V,0.15365615907203478,ternary
Hf0.230Yb0.415Pr0.355,Hf,Yb,0.23022156827679932,0.41465002698138553,1600.7453358026753,3195.8686341812845,7310.6502263863995,1.1566981657976143,1.739468526818822,0.0,Pr,0.3551284047418152,ternary
Nd0.126Zr0.595Pr0.279,Nd,Zr,0.12580994239568663,0.5951824146947011,1834.1538459382114,4624.465898712316,7361.4307656518595,1.250294582362897,1.6714452755915898,0.0,Pr,0.2790076429096122,ternary
Lu0.243Eu0.141Ti0.615,Lu,Eu,0.24340782718643614,0.1412550834075411,1806.0871498667036,3219.8065134782905,6634.692736202159,1.426253158301098,1.548757527048646,0.0,Ti,0.6153370894060227,ternary
Sc0.226Mn0.408Ag0.366,Sc,Mn,0.22602548723123503,0.40789888009791053,1302.3785761867812,2656.3963368447253,6525.834063529841,1.64616389784099,1.5184202239804179,0.0,Ag,0.3660756326708544,ternary
Ag0.471Pd0.402Al0.127,Ag,Pd,0.47071458291839585,0.40191076984485175,1587.7851761190577,2730.088515886167,11396.910659573672,1.9977560207423493,1.4750367194981662,0.0,Al,0.1273746472367524,ternary
Nd0.430Lu0.285Zn0.286,Nd,Lu,0.4295778201768292,0.28488341498315595,1367.3982797544772,2486.3285475477837,8869.411082436107,1.3226596140162177,1.6787422760816773,0.0,Zn,0.28553876484001484,ternary
Nb0.218Pd0.190Er0.591,Nb,Pd,0.2180979404036645,0.1904045954323262,2326.0937661352673,3883.061183441245,8795.75344222105,1.5013036701603526,1.6179290094775864,0.0,Er,0.5914974641640093,ternary
Y0.478V0.522W0.050,Y,V,0.4783787543485441,0.5220925151312302,2118.2148014720105,3996.455624311005,5849.034895698347,1.5526328799691291,1.6334066532545402,0.0,W,0.05,ternary
Sm0.476Zn0.306Ba0.217,Sm,Zn,0.4763806484400689,0.3064739382653229,1251.2748874105282,1842.157032129546,4708.69822412201,1.2563067746448646,1.7619066548557214,0.0,Ba,0.21714541329460824,ternary
Ir0.320Rh0.419Dy0.261,Ir,Rh,0.32009250419586555,0.4187873332473757,2328.6736651960623,3772.021417884117,14586.71769804006,1.9776052273541664,1.4544480650227034,0.0,Dy,0.26112016255675874,ternary
Tc0.521Pr0.127Yb0.352,Tc,Pr,0.5209165176193257,0.12716289327390898,1738.9426906372566,3603.038897866378,10171.20046626791,1.5205481008936776,1.5543496822796605,0.0,Yb,0.3519205891067654,ternary
Pd0.184Ni0.299Cr0.517,Pd,Ni,0.18380019837623432,0.29937240137246224,2036.039584874539,2965.9452482313827,8531.374072353103,1.8340952074662822,1.3850313799313771,0.0,Cr,0.5168274002513035,ternary
Hf0.480Sr0.512Lu0.050,Hf,Sr,0.48039542445367883,0.5118618678994944,1841.177473272769,3102.606599737568,8708.901811465357,1.1742828262943021,1.855836643702191,0.0,Lu,0.05,ternary
Ru0.453Ir0.337Ho0.210,Ru,Ir,0.4528039022910241,0.3372947903820319,2581.8303550114697,4866.152934479947,16980.938640284236,1.9963957318928645,1.4113203278162265,0.0,Ho,0.209901307326944,ternary
Zn0.106Y0.564Hg0.330,Zn,Y,0.10593152004775483,0.5636112630267033,1084.882327887018,2561.4033575109793,2965.2102558253246,1.5233071828224571,1.6531936509008478,0.0,Hg,0.33045721692554186,ternary
Mg0.258Ir0.365Ho0.377,Mg,Ir,0.2578443123465878,0.36512671143888054,2023.499868557996,3031.222204569013,10802.817499084282,1.6048004550834412,1.539488237337801,0.0,Ho,0.3770289762145317,ternary
V0.399Co0.562La0.050,V,Co,0.39905188013479587,0.5620332321710343,1978.3484750575153,2530.327040476114,6391.0164357104295,1.7620770411012614,1.3949649016128707,0.0,La,0.05,ternary
Hg0.529Eu0.267Tb0.203,Hg,Eu,0.529177836599166,0.26748370330902227,735.9022020808953,1539.673376227768,2960.397584763484,1.6030084232701518,1.644453911181111,0.0,Tb,0.20333846009181178,ternary
Ag0.427Co0.296Pd0.277,Ag,Co,0.4271716407842071,0.2955768818449549,1311.0283521602948,2647.3806016180447,10853.679733777844,1.9900790547978784,1.4706554840645936,0.0,Pd,0.277251477370838,ternary
Ho0.467Lu0.394Rh0.138,Ho,Lu,0.4671567278798291,0.39436214555240157,1988.2947596898073,3391.463130670583,10837.359320486425,1.3911796687182538,1.6946075493728923,0.0,Rh,0.13848112656776934,ternary
Mo0.403Y0.567W0.050,Mo,Y,0.4026360337624515,0.5672061680317022,2465.4181494329487,3993.5788033296026,7423.892891375359,1.679685357925572,1.6722933514126188,0.0,W,0.05,ternary
Ta0.435Ce0.515Al0.050,Ta,Ce,0.4353717661089486,0.5151850332314868,1744.5856153223192,4457.651248482368,12034.418964084365,1.3105648863826882,1.6468813723362261,0.0,Al,0.05,ternary
Al0.363Au0.443Co0.195,Al,Au,0.3626321319636229,0.4427497761172883,1362.0470466602717,3444.1033150706116,10915.342389081223,2.0743041766072325,1.3137367868036378,0.0,Co,0.19461809191908885,ternary
Re0.242Ru0.197Yb0.562,Re,Ru,0.2416485095467273,0.19653976572320522,2228.996702862514,3052.6595535103665,12850.184660076087,1.5095125499329076,1.5648977016058667,0.0,Yb,0.5618117247300675,ternary
Ti0.128Eu0.397Fe0.474,Ti,Eu,0.12844095579723067,0.3970692912362721,1541.6071564086774,2847.0800322180653,7340.912890321682,1.5425984693399517,1.5786811810563224,0.0,Fe,0.4744897529664972,ternary
Tc0.161Sm0.579Gd0.260,Tc,Sm,0.16089506562082131,0.578897668868218,1551.4202350108826,2910.8548031508817,9214.902131471148,1.2952596158685283,1.7565421039140414,0.0,Gd,0.26020726551096063,ternary
Fe0.288Sm0.482Cu0.230,Fe,Sm,0.28797922006396437,0.4819288831200347,1462.4237044865365,2290.681505749438,9548.764312410247,1.5280333699178974,1.6053634025632155,0.0,Cu,0.23009189681600095,ternary
Tb0.523Pr0.438Nb0.050,Tb,Pr,0.5227820133597265,0.43831815944260033,1447.2617937116117,3701.7318423278766,8518.367409696231,1.1503597348658376,1.798257118348332,0.0,Nb,0.05,ternary
Pd0.430Cd0.138Ca0.432,Pd,Cd,0.4302389231927024,0.1378570878460277,1267.8426636125464,2063.226575051266,7213.173573239624,1.611408098445002,1.5934401587614122,0.0,Ca,0.4319039889612699,ternary
Ca0.446Ag0.434Hg0.120,Ca,Ag,0.4461107459045629,0.43378960106477327,870.9638907784749,1860.5872341491659,5370.371990861418,1.523523982020903,1.6772121838778462,0.0,Hg,0.12009965303066383,ternary
Ta0.490Pd0.239Zr0.271,Ta,Pd,0.49036564929037185,0.23864374077732095,2555.3282876494177,4102.538089386154,14838.485895414144,1.6209822148556325,1.4651668739543646,0.0,Zr,0.27099060993230717,ternary
Cr0.598Ir0.229W0.173,Cr,Ir,0.5979792835565606,0.22911930291207763,2596.632878966241,4395.518377081712,12454.955762041229,1.9047554130444753,1.379898964177828,0.0,W,0.17290141353136176,ternary
Pd0.135Nb0.590Mg0.276,Pd,Nb,0.13469924066857167,0.5897109900734808,1935.5455693997408,3871.5794167621393,6997.950024853228,1.6008985113163385,1.4570445264294687,0.0,Mg,0.27558976925794754,ternary
Mo0.189Eu0.346Pt0.465,Mo,Eu,0.18922108503238547,0.34602864723067905,1655.943827732965,3964.934816719622,12717.467690168924,1.8835825307869802,1.541936432118578,0.0,Pt,0.4647502677369355,ternary
Zn0.209La0.422Hg0.369,Zn,La,0.209193249098831,0.4216690834844474,599.2928875710469,2330.9603058911607,3879.2012532279755,1.5472801876794064,1.6583721002031766,0.0,Hg,0.3691376674167216,ternary
Mg0.152Tm0.136Pd0.712,Mg,Tm,0.15164355797641313,0.13645975168947996,1586.7457680189889,2317.0040934829412,11852.048078941389,1.9354004692959863,1.4629252688889591,0.0,Pd,0.7118966903341069,ternary
Pr0.489Yb0.109Pd0.402,Pr,Yb,0.48861858265803026,0.10938239655089524,1258.7728800637176,3221.2180255755097,9599.072536979533,1.5568574803499229,1.6581622009889272,0.0,Pd,0.4019990207910745,ternary
Ba0.405Zn0.554Tb0.050,Ba,Zn,0.40457468885957676,0.5541839090294992,906.5818199750512,1685.9726592726481,4802.976443914059,1.3294749229836968,1.705483858237914,0.0,Tb,0.05,ternary
Dy0.176Ir0.265Ag0.559,Dy,Ir,0.17580373697003424,0.2649154346608279,1573.031692369153,3164.839042551593,12317.998074971449,1.8767065141096992,1.560141701880298,0.0,Ag,0.5592808283691378,ternary
Pt0.358Pr0.570Al0.072,Pt,Pr,0.35769150148185214,0.5699555366150686,1516.4610748658192,3950.7291292432233,12632.718611414051,1.5760746484176078,1.6277424721172262,0.0,Al,0.07235296190307927,ternary
Ba0.302Sr0.464Hg0.234,Ba,Sr,0.3019563758524103,0.46388371058157474,740.4250252882481,1905.4975039114197,2454.857198547553,1.177750526693171,1.928213499594854,0.0,Hg,0.23415991356601495,ternary
Mn0.102La0.577Ru0.321,Mn,La,0.10165368014731954,0.5770776729630728,1680.1249178247365,4234.243059451631,10238.762320745614,1.4991396676448625,1.6852658554407294,0.0,Ru,0.32126864688960766,ternary
Sr0.363Ni0.591Pr0.050,Sr,Ni,0.36251849833383476,0.5906285321865612,1251.3599274962387,2599.9438951354364,4989.644624800197,1.528993069893475,1.6148855151195272,0.0,Pr,0.05,ternary
W0.300Ho0.416Hf0.284,W,Ho,0.3003073992401163,0.41613626329979225,2590.7766289451024,4538.288915743268,13163.21810178627,1.5891963047635378,1.573165772811935,0.0,Hf,0.28355633746009146,ternary
Tb0.367Fe0.580Os0.052,Tb,Fe,0.3673131482800174,0.5804627610000327,1702.9533429696573,2688.752878267511,9097.897380161272,1.581184315321969,1.5233371928260109,0.0,Os,0.052224090719949934,ternary
Fe0.424Ca0.188Cd0.388,Fe,Ca,0.42389628590315753,0.1883091522547434,1383.9037337656478,1940.7496798095297,7291.402061978546,1.6194121649706692,1.5334928451782122,0.0,Cd,0.38779456184209904,ternary
V0.196Ir0.448Dy0.357,V,Ir,0.1955015804576514,0.44794113930353785,1899.4500003459998,4013.310836563712,13823.253066673886,1.7391379645051042,1.4926229120955243,0.0,Dy,0.3565572802388107,ternary
Co0.280Gd0.142Er0.578,Co,Gd,0.2796305607501549,0.14243124233638552,1627.278580218316,2967.685212220354,8505.159053399366,1.4132663091866438,1.6452693378167575,0.0,Er,0.5779381969134596,ternary
Gd0.195Mg0.118Lu0.687,Gd,Mg,0.19473224781432355,0.11784914431382984,1807.2765972496047,2930.34955786083,8170.410668880062,1.2610827084255507,1.7302743263122589,0.0,Lu,0.6874186078718466,ternary
Ti0.219Yb0.294Nd0.486,Ti,Yb,0.21924256566626035,0.2943837667368078,1373.595192491308,2539.881740921618,7348.813430611688,1.215921675597032,1.721902468776502,0.0,Nd,0.4863736675969319,ternary
La0.350Tb0.582Hf0.068,La,Tb,0.34984207575745896,0.5824769229972746,1404.743115552539,3433.542818810473,7071.510188261571,1.1135362002490534,1.8064322149024385,0.0,Hf,0.06768100124526644,ternary
Mg0.270Ti0.269V0.461,Mg,Ti,0.2696425529422404,0.2688593022070025,2097.989721104339,3190.1169618075105,4078.661660515747,1.5195170458598528,1.403889348051686,0.0,V,0.46149814485075713,ternary
Yb0.159V0.504Pt0.337,Yb,V,0.15909355436145575,0.5035518529037011,2179.547953869541,3538.8859335924362,11525.82419650247,1.7649609014660763,1.4136374217445824,0.0,Pt,0.33735459273484314,ternary
Dy0.490Y0.496Ca0.050,Dy,Y,0.4900195850940737,0.49588849350401704,1710.0764161679185,3024.170578747084,6704.321277541928,1.2528078558896707,1.8401335622218598,0.0,Ca,0.05,ternary
La0.389Zn0.562Lu0.050,La,Zn,0.38882123041502015,0.5616811872119054,897.4405145855571,2720.089130705437,6017.334621879171,1.4179773123561659,1.6039710020453617,0.0,Lu,0.05,ternary
V0.344Lu0.110Zn0.546,V,Lu,0.34444735666301673,0.10953150343604248,1546.9924478155333,2288.6358640115704,7292.848330246479,1.6014890815610434,1.393812601374417,0.0,Zn,0.5460211399009408,ternary
Eu0.451V0.165Rh0.384,Eu,V,0.45064840558464236,0.16526886677132993,1858.1439480811705,2757.8894457970177,8859.602232307438,1.6858749585672217,1.5753242027923213,0.0,Rh,0.38408272764402773,ternary
Nb0.494Gd0.483Cr0.050,Nb,Gd,0.49375574296466973,0.48285916571366105,1627.7929424143836,4014.0549816176135,7627.015539542677,1.452440187599865,1.6550923255833612,0.0,Cr,0.05,ternary
Co0.185Ca0.396Eu0.419,Co,Ca,0.18534469394144473,0.39552124464496075,1075.227445146692,1998.5711663115092,4632.630993341187,1.2469301429511903,1.7375515907970298,0.0,Eu,0.41913406141359455,ternary
Co0.397Ni0.408Ba0.195,Co,Ni,0.39748870357563804,0.4078142636290659,1714.7374901951775,3060.4817552483514,7331.02014449025,1.6994843654415286,1.5057576262362367,0.0,Ba,0.19469703279529604,ternary
Mn0.269Mo0.518Hg0.213,Mn,Mo,0.2686715551149883,0.5179479739896683,2030.3454298951476,3346.728374394838,8017.749554862806,1.9619694760366022,1.4472354457890177,0.0,Hg,0.2133804708953434,ternary
Lu0.262Ho0.588Pt0.150,Lu,Ho,0.26211747050584266,0.5879266347143366,1972.352794832318,3347.636776249135,9933.720928551616,1.3979383883390455,1.6900176420880717,0.0,Pt,0.14995589477982074,ternary
Pr0.261La0.582Cu0.157,Pr,La,0.2607949429617341,0.5823461949568304,1142.917584990015,3412.3600677687477,6498.416761931261,1.2333109379540006,1.8298051884549655,0.0,Cu,0.1568588620814355,ternary
Tc0.187V0.132Nd0.682,Tc,V,0.18672382435017723,0.13161094382682995,1668.728016967753,3890.613188875129,7548.007742143737,1.3463994689812813,1.6908326159114966,0.0,Nd,0.6816652318229929,ternary
Ag0.184Zn0.285Au0.531,Ag,Zn,0.18402542656770268,0.2849636716895093,1136.6137804402615,2480.943334596002,13480.291716509175,2.174126821990038,1.3960063566419256,0.0,Au,0.531010901742788,ternary
Zr0.563Mg0.120Rh0.317,Zr,Mg,0.5628377652987309,0.12034944718096732,1830.8125568819278,3344.287775317165,7274.646898961885,1.6285651592006674,1.4806199701368916,0.0,Rh,0.31681278752030184,ternary